ITEM: TIMESTEP
2010000
ITEM: NUMBER OF ATOMS
640
ITEM: BOX BOUNDS xy xz yz pp pp pp
-6.5218987769888628e+00 3.6792226235339470e+01 2.0184545660050840e-15
-9.7413320114189739e-01 3.2224133206481007e+01 -5.4096725416527818e+00
-8.5065840361190226e-01 2.8139613403613549e+01 1.6997512134833161e-15
ITEM: ATOMS id type x y z vx vy vz 
1 1 30.8633 3.20373 3.29954 -0.00249709 -0.000841878 0.000115731 
2 2 30.7505 1.10962 3.37202 0.00196154 -0.00106024 -0.000795869 
3 1 35.5514 6.46844 3.53873 0.00178191 -0.000477652 -0.00108856 
4 2 35.584 4.35076 3.47188 0.000844525 -0.00150023 0.00104883 
5 1 2.30953 3.07124 3.45672 0.00165887 0.00216719 -0.00361509 
6 2 2.58442 0.980021 3.52006 0.00036702 -0.000114891 0.00166586 
7 1 -1.78609 31.4091 6.90909 -0.000437655 0.0018074 -0.00274167 
8 2 -1.72463 0.308395 6.99025 0.00067101 -0.000767586 0.000472264 
9 1 3.2326 1.40957 7.0558 -0.000205068 0.00259909 -0.00064927 
10 2 3.00265 3.4889 6.86956 0.00141913 -0.00100763 -3.06231e-05 
11 1 -1.20581 6.42612 10.314 0.00329673 -0.000699256 0.00141694 
12 2 -1.41988 4.31754 10.4524 0.000214366 -0.000689823 0.00200154 
13 1 31.402 1.39562 7.04623 -0.00210145 -0.000857201 -0.00202941 
14 2 31.7336 3.45935 6.88811 0.000495831 -0.00101611 -0.000639485 
15 1 32.0786 3.27481 10.5157 0.00168412 -0.00127752 0.00181704 
16 2 31.8196 1.16949 10.6668 0.00282343 0.00234953 -1.76917e-05 
17 1 3.47265 3.06316 10.5529 -0.000696076 -0.00100184 -0.000925831 
18 2 3.39921 0.971678 10.5761 0.00246623 -0.00115419 -0.000922718 
19 1 -0.544525 31.3473 14.1431 0.00139924 -0.000950084 0.0011168 
20 2 -0.647059 0.248098 14.057 0.00059808 0.00046183 0.000902932 
21 1 4.10661 1.33799 14.1528 -0.00145882 0.00223796 0.000697444 
22 2 4.19941 3.47207 14.088 7.21001e-05 -0.00129207 -0.00252239 
23 1 0.189058 6.43341 17.8269 0.000824542 -0.000143081 -0.00332943 
24 2 0.0825135 4.32485 17.6975 -0.000114691 0.000365729 0.000769286 
25 1 32.5866 1.37624 14.187 -0.00257245 -0.00248975 -0.00035594 
26 2 32.4097 3.47488 14.1799 0.000641747 -0.000683455 -0.0012163 
27 1 33.2144 2.97899 17.7448 -0.000948971 4.51145e-06 0.0020278 
28 2 33.011 0.922131 17.548 -2.71478e-05 -0.0016309 -0.000553134 
29 1 4.4673 3.04504 17.9931 0.000622667 -0.00305212 0.000757362 
30 2 4.55662 0.950124 17.7885 -0.00167588 0.00135148 -0.00137662 
31 1 0.289857 31.2917 21.6716 0.000676552 -0.000328001 0.00293822 
32 2 0.434581 0.178643 21.464 -0.00143118 2.60615e-05 -0.000338906 
33 1 5.05442 1.33798 21.2816 0.00261205 -0.000668365 0.00102405 
34 2 5.11811 3.4552 21.3366 0.0015811 -0.000659773 0.000703396 
35 1 0.996228 6.50004 25.1811 0.00153786 0.00166748 0.00309184 
36 2 0.872364 4.38865 25.0879 0.00131835 -0.000601272 -0.00152445 
37 1 -4.61981 1.35557 21.7052 0.00203726 -0.00124522 -0.00124585 
38 2 -4.41236 3.45986 21.2734 0.00318527 0.00149061 -0.000635988 
39 1 -3.6889 3.21037 24.8048 0.00359983 0.00116746 0.00207119 
40 2 -3.74228 1.10902 24.9431 0.000189381 0.000885856 0.000429396 
41 1 5.49733 3.20208 25.0633 7.90628e-05 0.000584883 0.000337405 
42 2 5.63951 1.10344 25.1956 -0.000634776 -0.00151404 -0.00320531 
43 1 6.31851 31.1528 -0.505156 0.00109867 0.0021438 0.00228762 
44 2 6.77229 -0.00787716 -0.30074 0.00132083 0.000415305 0.000259753 
45 1 11.5807 1.52795 -0.250556 1.04527e-05 0.00164293 -0.00121167 
46 2 11.3361 3.63277 -0.216726 -0.0006912 -0.000449236 0.000443977 
47 1 1.56778 1.59206 -0.770518 -0.00298169 0.000933191 0.0027856 
48 2 2.10584 3.49398 -0.0240769 -0.00133283 0.000585573 0.000907685 
49 1 30.7862 9.76418 3.20028 0.00134539 3.67749e-06 0.000709436 
50 2 31.0448 7.71507 3.46442 -0.000876653 -0.00222187 -0.00117022 
51 1 35.7062 13.2027 3.39354 -0.00156576 0.0021387 -0.000881964 
52 2 35.8136 11.0623 3.25914 0.00320242 -0.00157487 0.000965611 
53 1 2.36042 9.84586 3.28576 -0.000243081 0.00411851 -0.000378732 
54 2 2.56707 7.78594 3.29677 -0.000107242 0.000247174 0.000484352 
55 1 -1.634 4.80939 6.83519 -0.00169313 -0.00182462 0.000230545 
56 2 -1.89301 6.88462 6.95062 -0.00118001 0.000845461 -0.00103983 
57 1 3.25006 8.14218 7.14093 0.00083145 -0.00220583 0.00112782 
58 2 3.01458 10.2979 7.23107 0.000592995 0.00049045 -0.000285809 
59 1 -0.899084 13.0938 10.5361 -0.00132469 0.000460109 -0.00132586 
60 2 -1.18462 11.0079 10.5573 0.000337498 -0.000234502 -0.000784738 
61 1 31.3815 7.99156 7.09401 -0.0002031 -2.06314e-05 0.00176744 
62 2 31.5354 10.0928 7.031 0.000343298 -0.00107108 0.000894332 
63 1 32.0974 9.81549 10.494 -0.000486132 -0.00345286 0.00339944 
64 2 32.0014 7.78261 10.5303 -0.000638131 -0.000600574 0.000107778 
65 1 3.40339 9.75147 10.6069 -0.00252246 -0.000941231 1.94173e-05 
66 2 3.50196 7.6416 10.6594 0.000455282 0.000424567 0.000633194 
67 1 -0.798149 4.68928 14.1015 -0.00122062 0.00119462 0.00252486 
68 2 -0.679921 6.77722 14.0623 0.000822411 -0.00212293 -0.00206919 
69 1 4.03207 8.0143 14.0026 -0.00190585 0.00171866 -0.000160244 
70 2 4.07401 10.1431 14.3251 0.000286489 0.000316868 -0.000765557 
71 1 -0.0999156 13.0475 17.4193 0.00146171 -0.00256833 -0.00343716 
72 2 0.11778 10.9612 17.6277 -0.00162332 0.000232465 -0.000666669 
73 1 32.702 7.89989 14.2425 -0.00362441 -0.00122466 -0.00246735 
74 2 32.4318 9.99652 14.3318 0.00107889 -0.000305316 -0.0001939 
75 1 32.8759 9.71886 17.7368 0.00281366 2.41762e-05 0.00156166 
76 2 33.2768 7.66963 17.8693 0.000219654 0.00175491 -0.00208695 
77 1 4.76828 9.67514 17.5238 0.0010814 0.00316886 0.00121653 
78 2 4.82254 7.574 17.8907 0.0021009 -0.000241327 -0.000957985 
79 1 0.524146 4.70115 21.7809 -0.000842228 -0.000627257 -0.000627114 
80 2 0.482525 6.70836 21.3357 0.00159413 0.000610292 0.000964935 
81 1 5.45998 7.95415 21.6873 -0.00214041 -0.000680785 -0.00428775 
82 2 5.41667 10.0687 21.5452 -5.30379e-05 0.000109855 -0.000640643 
83 1 0.933413 13.0036 24.9709 -0.00186412 -0.0052484 -0.000103709 
84 2 0.810961 10.9243 25.1031 -0.000503024 -0.00108851 -0.000317838 
85 1 -4.43488 7.94983 21.3841 0.00134583 0.00178726 0.00113977 
86 2 -4.39151 10.0506 21.5555 -0.00097713 -0.000573321 -0.00112541 
87 1 -4.03622 9.68038 25.1361 0.000433394 0.00333341 -0.000488603 
88 2 -3.80185 7.62917 25.1716 -0.000347807 0.00078908 -0.00011903 
89 1 5.9394 9.86733 25.1747 0.000614249 0.00168718 -0.000898666 
90 2 5.57331 7.7546 25.1018 0.00206383 -0.00161917 -0.000431962 
91 1 7.05101 4.69929 -0.147444 0.00327813 -0.00228257 -0.000456754 
92 2 6.59968 6.7526 -0.300701 0.000139347 -0.00205964 -0.00224995 
93 1 11.6268 7.93185 -0.368902 -0.00510266 0.00378402 0.000360731 
94 2 11.4066 10.0227 -0.158287 -0.000398946 0.000354335 -0.000171795 
95 1 1.96712 8.0415 -0.233775 -0.00163724 -0.00345028 -0.000775998 
96 2 1.84714 10.1437 -0.340209 0.000426665 -0.000303297 0.000936945 
97 1 30.8469 16.3075 3.37911 4.22496e-06 -0.00149147 0.000578886 
98 2 31.0724 14.2317 3.28182 0.00010912 -0.00273438 -0.000663182 
99 1 35.5215 19.7557 3.55953 0.00160685 0.00298133 0.000392054 
100 2 35.6315 17.6445 3.27364 0.000761307 -6.66191e-05 0.00228468 
101 1 2.5762 16.5387 3.35487 -0.00415564 0.000771178 -0.000144685 
102 2 2.53384 14.4201 3.41068 -4.43297e-05 0.00207596 -0.000361011 
103 1 -1.56519 11.6142 7.04023 -0.000384307 0.0019401 0.00117292 
104 2 -1.91806 13.66 7.05142 -0.00220677 0.001887 3.97019e-05 
105 1 3.06981 14.6227 7.14046 -0.000424877 0.00136399 -0.00115847 
106 2 2.94148 16.7568 7.0468 0.00185025 -0.000182551 0.00119455 
107 1 -1.00181 19.7633 10.5656 -0.00161064 -0.00237456 -0.00150932 
108 2 -1.21456 17.6604 10.5749 -0.00151397 0.000499037 -0.000210575 
109 1 31.4504 14.6448 7.18261 -0.000792756 -0.00330218 -0.00247313 
110 2 31.3095 16.6976 6.83629 0.000156442 0.000401883 0.00098052 
111 1 31.7675 16.4682 10.4149 -0.00123813 0.00243992 -0.000172715 
112 2 31.9981 14.3971 10.8783 -0.00244516 0.000568408 -0.000538755 
113 1 3.23611 16.4831 10.5493 -0.001486 0.000686671 0.000691721 
114 2 3.5906 14.3965 10.6138 -0.00168417 -0.00125802 -0.00129109 
115 1 -0.530835 11.3809 14.0296 -0.0017804 -0.00159417 0.0015613 
116 2 -0.561451 13.4908 14.1684 0.000629713 -0.000907529 -0.00100283 
117 1 3.9075 14.7588 14.2871 -0.00200891 0.000153958 0.00301803 
118 2 3.99771 16.8767 14.257 0.000219714 0.0014792 -0.00159021 
119 1 0.0329447 19.5626 17.7639 0.00120655 -0.00108008 0.00020176 
120 2 -0.13839 17.5273 17.8332 0.00290565 0.00146366 0.00174632 
121 1 32.5786 14.6217 14.4121 0.000794035 -0.00283819 -0.00197638 
122 2 32.5219 16.7459 14.3455 -0.000964754 0.00198867 0.000260878 
123 1 33.1895 16.301 17.8021 0.00442713 0.00290916 -0.00276591 
124 2 32.7724 14.2221 17.8363 -0.000582388 0.00253475 -0.000150711 
125 1 4.61579 16.2285 17.7744 0.000210932 0.00138357 0.00109864 
126 2 4.57542 14.1457 17.8647 -0.0013332 -0.000130951 -0.00145805 
127 1 0.441517 11.3002 21.4341 0.000749816 0.00190857 0.00343671 
128 2 0.323352 13.357 21.3774 -0.000173564 -4.2353e-05 -0.00151577 
129 1 4.84048 14.6273 21.4706 0.00188415 0.000675023 0.000915649 
130 2 5.04997 16.7213 21.3294 0.00127281 -0.00235956 -0.0021269 
131 1 0.529514 19.6445 25.1337 0.00171875 -0.00212139 -0.00198285 
132 2 0.778161 17.5636 24.9967 0.00271725 -0.00262053 -0.00175428 
133 1 -4.19427 14.5571 21.6037 0.00150625 0.000516212 0.00249447 
134 2 -4.32303 16.6395 21.3521 8.79293e-05 0.000229574 -0.00309239 
135 1 -4.02527 16.4612 24.8106 0.000740879 -0.00311269 0.00090332 
136 2 -3.89232 14.3553 25.0361 0.000793854 0.00227517 -0.00182013 
137 1 5.49325 16.4673 24.9877 0.00171397 -0.00219643 -0.00069964 
138 2 5.66663 14.3793 24.977 -0.00163026 3.0274e-05 0.000844685 
139 1 6.44645 11.1853 -0.368902 0.000563868 -0.000278115 0.00229492 
140 2 6.71344 13.2936 -0.344697 -0.0016053 0.00177864 0.00118075 
141 1 11.6104 14.5803 -0.23509 -0.00290436 -0.000440493 -0.00128576 
142 2 11.5055 16.6853 -0.27661 -0.000286868 0.000244418 -0.000623455 
143 1 2.14323 14.6372 -0.481703 0.00126092 0.000533164 0.0014137 
144 2 2.15953 16.7582 -0.406399 -0.0002061 -0.00241019 -0.000517638 
145 1 31.0278 23.0329 3.19496 0.00195033 -9.00797e-05 -0.00225875 
146 2 30.9855 20.9317 3.2511 0.00126571 0.000247351 -0.000151379 
147 1 35.5026 26.1855 3.38939 -0.000184429 -0.000403694 0.00352983 
148 2 35.9694 24.1656 3.15013 0.00101752 -0.00161047 0.000979769 
149 1 2.63981 22.994 3.3269 -0.00165655 -0.000339733 -0.00125254 
150 2 2.63113 20.8845 3.44402 0.000181176 -0.00060738 -0.000737552 
151 1 -1.66773 17.9518 6.83917 -0.00392988 -0.000767567 0.000289007 
152 2 -1.82247 20.0178 7.11083 -3.69198e-06 -7.51004e-05 -0.000618246 
153 1 2.96658 21.499 6.92908 -0.000744274 0.000926268 -0.00118634 
154 2 3.03566 23.5863 6.984 -0.00103869 0.00126461 -0.00142936 
155 1 -1.3056 26.3797 10.6507 0.00230525 -0.000493519 -0.00135179 
156 2 -1.32068 24.2733 10.601 0.000994721 0.00131704 -0.00329877 
157 1 31.6993 21.4237 6.71162 0.00330466 0.0043807 -0.00127829 
158 2 31.2828 23.486 6.98837 6.47274e-05 0.000536024 -0.000815113 
159 1 32.0628 22.9282 10.3518 0.000819476 0.00170163 -0.00223611 
160 2 31.9452 20.8069 10.364 0.000280848 0.00109884 0.00147072 
161 1 3.4425 22.8991 10.7727 0.000512856 0.000121347 0.00187019 
162 2 3.35136 20.8564 10.6959 -0.000788503 0.00109117 -0.00243896 
163 1 -0.791508 18.1893 14.2935 0.00440118 1.01937e-05 -0.000992168 
164 2 -0.907203 20.2619 14.3649 -0.000155882 0.000416942 -0.00270606 
165 1 4.33887 21.297 14.0534 -2.0623e-06 0.000766063 -0.00280047 
166 2 4.1826 23.4276 13.958 -0.00155976 0.00158127 0.00119615 
167 1 -0.266532 26.2808 17.4621 0.0024245 0.000488553 -0.0010512 
168 2 -0.36903 24.2149 17.7761 -0.00085644 -0.000838022 -8.56462e-06 
169 1 32.7091 21.1274 14.2669 -0.000586811 0.00289433 -0.000583018 
170 2 32.4545 23.2474 13.9922 0.000249681 -0.00134943 -0.000253837 
171 1 33.1245 23.0999 17.6074 -0.000216834 0.000428433 0.000172591 
172 2 32.8759 20.9843 17.7979 -0.000574554 -0.000511408 0.00213405 
173 1 4.41732 23.0417 17.6762 0.000356465 2.93361e-05 -0.00427915 
174 2 4.69912 20.9932 17.6463 0.00185702 -0.00214353 -0.000905967 
175 1 0.345649 17.8771 21.3373 0.00251431 -0.00187884 -0.000109758 
176 2 0.421313 20.0086 21.3678 -0.00128675 -0.00227332 0.00144861 
177 1 5.1109 21.3727 21.49 0.0020416 0.00274672 0.0016135 
178 2 5.14012 23.3882 21.6429 0.000364802 -0.00113328 -0.000229881 
179 1 0.575363 26.4496 25.4883 7.74426e-05 -0.00191377 -9.69379e-05 
180 2 0.829739 24.3678 25.0117 0.00141553 0.00153184 0.00225572 
181 1 -4.33751 21.093 21.3317 0.00261142 -0.000630893 -0.000634728 
182 2 -4.30065 23.2125 21.2447 -0.00124813 -0.000296743 0.00035938 
183 1 -3.86104 23.0881 24.8531 -0.00299907 0.00302656 -0.00195317 
184 2 -3.82723 20.9588 25.1684 0.000957622 0.000220111 0.00114409 
185 1 5.57366 23.0661 25.1326 -0.00210231 0.00402146 -0.000261035 
186 2 5.34344 20.9591 25.1323 -0.00266355 -0.00104243 -0.000754311 
187 1 7.14391 17.9681 -0.38738 0.00190321 -0.00136986 0.00122958 
188 2 6.85749 20.0443 -0.458648 0.0016419 0.000933238 0.00126998 
189 1 11.5204 21.2766 0.113722 0.000880867 -0.00190153 0.000653853 
190 2 11.4576 23.3285 -0.199685 0.00192922 0.00120319 -0.00084398 
191 1 2.19473 21.1476 -0.133865 -0.000608805 0.00218315 0.00239963 
192 2 1.93431 23.2528 -0.185703 -5.75595e-05 -0.000411491 -0.000439033 
193 1 30.9283 29.683 3.35741 -0.000673438 0.000204941 -0.000228235 
194 2 31.049 27.5523 3.24262 -0.000109197 -0.000503036 -0.00244571 
195 1 35.5463 -0.390845 3.20547 -0.00281509 0.0028853 -0.00168153 
196 2 35.6378 30.7309 3.4099 -0.000361411 -0.00194537 -0.00170008 
197 1 2.64604 29.7146 3.19526 -0.00178855 -0.00126028 -0.0010339 
198 2 2.58458 27.5877 3.32152 -0.000332802 0.000263515 -0.00063279 
199 1 -1.40731 24.5884 6.59952 -0.00134988 9.18775e-05 0.0010463 
200 2 -1.73274 26.6141 6.88117 0.00202343 0.000782365 0.000666601 
201 1 3.15607 27.9952 6.84275 0.000659016 0.000469899 -0.00147293 
202 2 3.08926 30.126 6.92353 -0.0026703 0.000722658 -0.00173765 
203 1 -1.46552 -0.288481 10.5566 -0.00121008 0.00342272 -0.00127355 
204 2 -1.26663 30.8458 10.6169 0.000483504 8.55504e-05 0.000506673 
205 1 31.4264 28.1067 7.13727 0.00298862 0.000568828 0.000429983 
206 2 31.5275 30.217 7.03341 0.000505053 -0.00110409 0.000302372 
207 1 31.8322 29.6188 10.8404 -0.00314169 -0.000496523 0.00202611 
208 2 31.9617 27.5215 10.5599 0.00128207 -0.00250446 0.000287324 
209 1 3.72828 29.7011 10.4839 -2.84881e-05 -0.00392626 0.000885899 
210 2 3.49874 27.6263 10.5389 0.000416409 0.00359868 0.000245335 
211 1 -1.03652 24.6386 14.2352 -0.00162281 1.26899e-05 0.000381673 
212 2 -0.896983 26.7418 14.0672 -0.00227875 -0.0010442 -0.00167333 
213 1 3.89196 27.8123 13.8732 0.00138745 -0.0012322 0.00262223 
214 2 3.84889 29.9192 14.1219 -0.000960514 -0.000156019 -0.000690065 
215 1 -0.198536 -0.198471 17.8724 0.00286808 -0.000414732 4.24964e-05 
216 2 -0.147026 30.8947 17.7242 -4.71203e-06 5.76889e-06 0.00190811 
217 1 32.4095 28.0295 14.0156 -0.000737067 0.000253073 -0.00259129 
218 2 32.3855 30.1181 14.16 -0.00145527 -0.000169434 0.00130709 
219 1 33.0175 29.6537 17.9183 0.00146939 -0.000260508 0.000190286 
220 2 33.2172 27.5659 17.7681 -0.000964502 -0.000500177 0.000522599 
221 1 4.62792 29.6575 17.5496 -3.75602e-06 -0.00156708 0.00243025 
222 2 4.46157 27.594 17.896 -0.00194467 -0.000639404 0.000208759 
223 1 0.340821 24.6309 21.428 -0.000902222 0.000426291 0.00119728 
224 2 0.495762 26.7665 21.518 -0.000172115 -0.000859121 -0.000456135 
225 1 5.18435 27.8845 21.4826 -0.00133501 -0.00196397 0.00158967 
226 2 5.14764 30.0186 21.5022 -0.000737998 0.00125283 -0.00430174 
227 1 0.717572 -0.228491 25.1496 -0.00143517 -0.00138911 -0.000247726 
228 2 0.923369 30.8381 25.0546 0.000595053 0.00177303 0.00057267 
229 1 -4.37626 27.8543 21.4762 0.00150391 0.00298257 -0.00046804 
230 2 -4.28021 29.9616 21.359 0.001813 -7.52168e-05 0.00205303 
231 1 -3.68826 29.652 24.8725 -0.00224995 0.00161178 0.00128981 
232 2 -3.89205 27.6027 25.1345 0.00240081 -0.00280982 0.000619348 
233 1 5.17995 29.4664 25.0887 0.00266443 0.00226775 -0.000953074 
234 2 5.69462 27.4397 25.1485 0.000387397 0.000569112 0.00214496 
235 1 6.51666 24.6582 -0.430591 0.0011692 0.000803877 0.00187879 
236 2 6.70064 26.7752 -0.132525 -0.00178143 -0.000831892 -0.00147633 
237 1 11.3395 27.8571 -0.0346732 0.00102154 0.00154481 0.00461728 
238 2 11.7175 29.893 -0.114032 -0.000794972 -0.000794023 2.04502e-06 
239 1 2.15997 27.9619 -0.30412 -0.00300141 -0.00240693 -0.000422142 
240 2 1.93858 30.0783 -0.327216 -0.0014629 3.34257e-06 0.000933202 
241 1 7.14087 6.27705 3.31459 0.000216338 -0.00123691 0.00336531 
242 2 7.11185 4.18917 3.24656 0.00180214 0.000555998 0.000515558 
243 1 12.0075 3.13207 3.39587 0.00425159 0.00227819 -0.000103373 
244 2 11.9445 1.0443 3.35607 0.000318632 -0.00161084 0.000945374 
245 1 7.68303 31.3353 7.24459 -0.000562171 -0.00183675 0.000693007 
246 2 7.86722 0.191556 6.9625 0.000745151 -0.00178796 -4.29498e-05 
247 1 12.724 1.59499 6.9743 0.002 -0.00323963 0.00023875 
248 2 12.636 3.66999 7.0077 -0.000314535 -0.00108862 0.00152425 
249 1 8.48877 6.56354 10.7348 0.00272832 0.00236069 0.00303407 
250 2 8.29764 4.51687 10.3831 -0.000687086 9.91064e-05 -0.000418561 
251 1 12.7607 3.06674 10.5224 0.00241343 0.0022158 0.00209243 
252 2 12.972 0.989975 10.4674 -0.00292016 -0.000253435 -0.00132553 
253 1 9.40676 31.4133 14.029 0.00189459 0.00332893 0.00183761 
254 2 8.70812 0.200634 14.1536 0.000386477 -0.0016883 0.00106735 
255 1 13.6452 1.42489 14.3023 0.00153767 -0.00360078 0.00310413 
256 2 13.357 3.45912 14.1412 -0.000559266 0.00256785 -0.00117837 
257 1 9.34129 6.35499 17.804 0.000849822 -0.00178896 0.000605305 
258 2 9.4764 4.25634 18.0093 -0.000817659 0.00160558 0.00075913 
259 1 13.9329 3.12034 17.8434 0.00123019 0.000118647 -0.000653427 
260 2 13.9978 1.07816 17.595 0.000614047 0.00119812 -0.00123155 
261 1 9.47164 31.2014 21.7859 0.000321763 0.00301749 -0.000447217 
262 2 9.62816 0.0883744 21.6246 -0.00136641 0.00153553 0.000557944 
263 1 14.2571 1.2847 21.7421 -0.00128483 0.000178012 -0.00304984 
264 2 14.466 3.33162 21.4091 -0.00122063 0.00114233 0.000721839 
265 1 10.818 6.43241 25.2208 0.00303908 0.00158215 -0.000147768 
266 2 10.3353 4.37797 25.0861 0.000345183 0.00102781 0.00107889 
267 1 14.7297 3.04365 25.074 0.000706569 -0.00194654 -0.0013934 
268 2 15.0185 0.95258 25.0481 0.00101054 -0.000526298 0.000263149 
269 1 16.0823 31.2023 -0.0785365 -0.00206981 0.00203611 -0.00111985 
270 2 16.1722 0.105202 -0.0850664 -0.000417033 -0.000641651 -0.000112781 
271 1 20.8052 1.32451 -0.291777 -0.00491636 0.000289374 -0.00178601 
272 2 21.1182 3.42239 -0.346233 -0.00214755 -0.000100473 -0.00123515 
273 1 6.90157 13.0707 3.66445 0.00223991 0.000546791 0.00132508 
274 2 7.14254 11.031 3.41147 -0.00172882 0.00240973 0.00186633 
275 1 11.7267 9.76747 3.4019 0.00184655 0.00222539 0.000510182 
276 2 11.9503 7.68615 3.36788 0.00222089 -0.00111819 0.00110905 
277 1 7.56073 4.76804 6.94901 0.00239314 -0.00294026 0.00143308 
278 2 7.5543 6.86606 7.01528 0.000135107 0.000140946 0.000364519 
279 1 12.3112 8.00355 7.4485 0.0023152 0.00203791 0.00148607 
280 2 12.2972 10.0923 6.98312 -0.00040052 -0.00223558 -0.00109735 
281 1 8.37461 12.8487 10.6457 0.000970342 0.00178142 -0.00191003 
282 2 8.12998 10.7636 10.6041 0.00132922 -0.000437167 -0.000534574 
283 1 12.8595 9.76169 10.6074 0.000241469 -0.00164503 0.000432149 
284 2 12.9399 7.7071 10.7941 0.00190133 -0.000579968 -0.000850896 
285 1 8.85351 4.62835 14.1769 0.00169151 -0.00132755 -0.00179676 
286 2 8.81742 6.70916 14.1852 -0.00268889 -0.000356005 -0.00129511 
287 1 13.5964 8.16573 14.395 -0.00124633 0.000233646 -0.000584962 
288 2 13.5408 10.2729 14.3535 0.000233008 0.00114802 -0.000655013 
289 1 9.44907 13.1993 17.7527 0.000768283 -0.00259639 -0.000522575 
290 2 9.14353 11.103 17.9164 -0.00178617 0.00206289 0.000133657 
291 1 13.9937 9.91849 17.8625 -0.00251127 -0.000759394 0.00102935 
292 2 14.0781 7.78417 17.9044 -0.000737674 -0.00143652 -0.00187657 
293 1 10.06 4.73112 21.4646 0.00276779 -0.000613405 0.000173122 
294 2 9.88691 6.85028 21.4979 -0.00153731 0.0018533 0.00236255 
295 1 14.7538 8.00699 21.5473 -0.000839903 -0.0019907 -0.00514189 
296 2 14.4667 10.1035 21.5874 -0.00161842 0.00198869 -0.00335721 
297 1 10.3278 13.0285 25.0256 0.000204511 0.000168033 -0.00089148 
298 2 10.4613 10.907 25.1047 -0.000466209 -0.000818775 0.00223567 
299 1 15.0558 9.70514 24.9946 0.000948981 -0.000333777 0.000602598 
300 2 15.1593 7.64122 25.1125 -0.00216842 -0.000619465 0.000484267 
301 1 16.3839 4.66273 -0.163683 -0.00108474 -0.00158744 0.00189011 
302 2 16.3324 6.76297 -0.201912 0.000623238 -0.000201622 -0.000564659 
303 1 21.1296 8.06344 -0.253343 -0.000315311 -0.00171654 0.00218199 
304 2 20.9143 10.1149 -0.355524 -0.00106939 0.000475697 0.000374947 
305 1 7.44586 19.7194 3.26 0.000423229 -0.00147804 -0.00208722 
306 2 7.36897 17.6088 3.36127 -0.00174689 -0.00243859 0.000550072 
307 1 12.0782 16.3089 3.28366 8.7754e-05 0.000802453 0.00182059 
308 2 11.953 14.1759 3.22809 0.000570385 0.00144411 -0.000296351 
309 1 7.92962 11.3033 7.11563 0.00133716 0.00188148 -0.00250304 
310 2 7.73988 13.3584 7.04703 0.000707707 -0.000366218 0.00146731 
311 1 12.0816 14.6695 6.74756 -0.00306392 -0.00103026 -0.000698765 
312 2 12.6297 16.6837 6.95006 -0.00168266 -0.000336031 -0.00037941 
313 1 8.80016 19.596 10.5096 -0.000574674 -0.00323268 0.00154954 
314 2 8.46923 17.5401 10.8992 -0.000751425 -1.03749e-05 -0.00142344 
315 1 12.98 16.4246 10.5757 0.000103319 -0.000286445 0.00176777 
316 2 13.0106 14.3069 10.773 -0.00152256 0.000472551 0.000294341 
317 1 8.61458 11.2564 14.3058 -6.98443e-05 -0.00166113 0.000676403 
318 2 8.70286 13.34 14.218 -0.000958752 0.000847868 0.000775943 
319 1 13.251 14.6346 14.2006 -0.00214944 0.0016972 0.0006267 
320 2 13.5754 16.7084 14.2978 0.000592987 0.0012845 0.000559198 
321 1 9.36913 19.6943 17.8564 0.000577269 -0.00250824 0.000262035 
322 2 9.29203 17.5766 17.6934 -0.00146869 -0.000478314 -0.00127502 
323 1 13.6917 16.3261 18.1905 -0.000746057 0.000614552 -0.00248371 
324 2 14.075 14.2861 17.862 -0.00101476 0.00200164 0.00256437 
325 1 9.87513 11.224 21.6702 -9.85842e-05 0.00198466 -0.00247217 
326 2 9.95965 13.3092 21.6293 -0.000770925 0.000440293 0.00138828 
327 1 15.0649 14.5675 21.6031 -0.00289028 0.00417145 0.000247948 
328 2 14.6833 16.6299 21.4002 -0.00113196 0.000406237 0.00252361 
329 1 10.0567 19.6078 25.215 -0.000365611 -0.00010719 0.000717323 
330 2 10.1372 17.5319 24.9609 -0.000117538 0.00108599 0.00117129 
331 1 15.1075 16.2288 25.2043 0.0015149 0.000921131 0.00172191 
332 2 14.9862 14.1251 24.9241 0.00153761 0.000929055 0.000670541 
333 1 16.291 11.3008 -0.191731 -0.00137045 -0.00251984 -0.000344263 
334 2 16.3086 13.4334 -0.379528 0.00154721 0.00249805 0.000504034 
335 1 20.9431 14.6274 -0.0500217 0.00367598 0.00290388 0.00195679 
336 2 20.994 16.7342 -0.34083 8.36324e-05 0.000366987 -0.000362386 
337 1 7.22548 26.2004 3.26348 -0.0014206 -0.00193181 -0.00156452 
338 2 7.3164 24.0433 3.41573 0.000861561 0.000725878 0.000507376 
339 1 12.2041 22.9431 3.38064 0.00121397 -0.00042138 -0.00264833 
340 2 12.1563 20.841 3.55843 0.00181662 0.000338782 0.00376365 
341 1 7.91986 17.7764 6.81297 0.00117949 -0.00258563 -0.00141726 
342 2 7.73018 19.8412 7.14375 -0.000325666 -0.0007133 0.000994558 
343 1 12.2761 21.2455 6.99469 0.00139024 0.00267299 -0.00215691 
344 2 12.2992 23.3327 6.90574 -0.000424339 -0.000995427 0.000605815 
345 1 7.8036 26.4093 10.7251 0.00322009 0.00118607 -0.00457831 
346 2 8.2491 24.3378 10.4509 -0.000423788 -0.000441713 -0.00142951 
347 1 12.9741 23.0406 10.7642 -0.0010707 -0.00122254 0.000587783 
348 2 13.2101 20.9298 10.62 0.00244852 -0.000712192 -0.00136119 
349 1 8.58969 18.0215 14.246 0.00609627 0.000340073 -0.0013963 
350 2 8.8007 20.1505 14.1875 -0.00245721 -0.00171179 0.00166616 
351 1 13.5618 21.3242 14.2948 0.000802213 -0.00123218 5.23184e-05 
352 2 13.6103 23.4755 14.284 0.000183284 0.00119318 0.00249276 
353 1 9.48654 26.2886 17.3818 -0.000418139 -0.00441107 -0.00237783 
354 2 9.32434 24.2171 17.8338 0.00216634 -2.62537e-06 0.00177831 
355 1 14.2913 22.9579 17.8129 -0.00060894 -0.0036127 0.00109586 
356 2 14.0263 20.8989 18.0204 2.41191e-05 0.00185125 0.00247874 
357 1 9.88569 17.9098 21.2809 0.00171053 -0.00139172 0.00012306 
358 2 9.5581 19.9878 21.4925 0.000590185 -3.69736e-06 0.00137767 
359 1 14.0824 21.3611 21.5996 -0.00245103 -0.00219147 -0.000704168 
360 2 14.3488 23.5044 21.5329 -0.000665924 9.62288e-05 0.000722222 
361 1 10.38 26.2268 25.1907 0.00250675 -0.00235716 -0.00106014 
362 2 10.3402 24.1197 25.2294 -0.000845993 -0.00163645 -0.000853356 
363 1 14.9796 23.0259 25.0044 3.95112e-05 0.000603393 -0.000222855 
364 2 14.8044 20.946 25.0824 0.00244594 0.000101698 0.000890649 
365 1 16.473 18.0718 -0.161018 -0.00145656 0.000920125 0.00018451 
366 2 16.1432 20.1633 -0.184498 0.000448483 -0.00139307 -0.000351299 
367 1 20.9556 21.3933 -0.454113 -0.00127895 -0.000530977 0.00405254 
368 2 21.0339 23.4685 -0.215362 0.00235351 0.000907754 0.000694374 
369 1 7.44308 -0.140566 3.16972 -0.00185956 0.000363256 -0.00113124 
370 2 7.40127 30.9606 3.43821 0.00136728 -0.00277114 0.00143686 
371 1 12.0714 29.7678 3.41549 -4.14177e-05 -0.000585758 -0.000679117 
372 2 11.9637 27.6388 3.32755 -0.000613054 -0.00279529 0.000980831 
373 1 7.5963 24.8427 6.95925 0.00187857 0.00164225 0.00157498 
374 2 7.67399 26.8372 6.86045 -0.000722849 0.0022361 -0.00117432 
375 1 12.6332 27.8883 6.95701 -0.0014693 0.00360558 -0.000448968 
376 2 12.6942 30.0051 7.04328 -0.00124109 -2.55541e-05 -0.00283043 
377 1 8.2537 -0.242554 10.6313 9.44929e-05 -0.00133048 0.000705438 
378 2 8.21994 30.8671 10.7214 6.90129e-05 0.00185702 -0.000797933 
379 1 12.9693 29.6221 10.36 -0.00223307 0.00109029 -0.00245444 
380 2 13.1638 27.5385 10.6603 0.000391741 -0.000176754 -0.00157677 
381 1 8.86439 24.5728 13.875 0.00357864 -0.0025221 0.000462185 
382 2 8.65102 26.7109 14.133 0.000791851 -0.000427083 -0.00100457 
383 1 14.0091 27.9824 14.1094 0.00258373 0.00299851 0.000284097 
384 2 13.7523 30.1292 14.214 0.00192208 0.00122097 -5.8146e-05 
385 1 9.11735 -0.160007 18.1966 0.000162416 0.000977697 -0.00186874 
386 2 9.16319 30.9373 17.985 -0.0016181 0.00148994 0.00109717 
387 1 13.8585 29.7367 17.8556 0.00188535 0.00336631 0.000631308 
388 2 14.0952 27.6966 17.7622 -0.00165293 -0.00124314 8.69204e-05 
389 1 9.94061 24.7088 21.5224 -5.585e-05 -0.00160835 -0.00168168 
390 2 9.81692 26.7878 21.5845 0.00255547 0.00114192 0.00011131 
391 1 14.4084 28.0948 21.7606 -0.000567059 0.000854757 -0.0020383 
392 2 14.4644 30.1983 21.3493 0.0015076 0.000928776 0.000419043 
393 1 9.9606 -0.140805 25.1091 0.000539117 -0.000708056 -0.000655681 
394 2 10.2039 30.9761 25.2003 -0.00158042 -0.000424954 -0.000132916 
395 1 14.9111 29.6673 25.1275 -0.00180353 -0.00250926 0.00187368 
396 2 14.908 27.5769 25.0732 -0.00103633 -0.000778546 0.00100093 
397 1 16.0157 24.6233 -0.296101 -0.00151148 0.0013678 -0.00237431 
398 2 16.0699 26.73 -0.425059 0.00041791 -0.0013058 -0.000970409 
399 1 20.8261 27.9357 -0.326502 0.000151965 -3.95798e-05 0.000682893 
400 2 21.0131 30.0522 -0.279193 0.00111251 -0.00212657 -0.00039371 
401 1 16.5887 6.49235 3.40164 0.00131808 -0.000877147 0.0021383 
402 2 16.7022 4.45051 3.27226 0.0022869 5.40616e-05 0.00088153 
403 1 21.3438 3.08034 3.73544 -0.00211164 0.00186337 0.00120981 
404 2 21.2695 0.978496 3.39857 -0.00171817 0.000814424 -0.000116779 
405 1 17.3497 31.2898 6.95223 -0.00219335 -0.00186142 -0.000866376 
406 2 17.2325 0.142498 7.26235 -0.000961746 0.000631599 0.0017995 
407 1 22.028 1.46664 6.86676 0.00259799 -0.00134739 -0.00117922 
408 2 21.8971 3.47927 7.13855 -7.5837e-05 0.00232035 0.00110663 
409 1 17.354 6.24307 10.617 0.00158634 -0.00276539 0.000505838 
410 2 17.8654 4.24939 10.5732 -0.000705388 0.000160301 0.00184044 
411 1 22.504 3.22053 10.8413 -0.000515138 0.000571901 -0.000221099 
412 2 22.5161 1.14064 10.484 -0.000554328 0.00205512 -0.000357824 
413 1 18.3578 31.3526 14.1819 -0.000971097 -0.00179217 -0.000659006 
414 2 18.2969 0.223151 14.4153 -0.00056855 5.86812e-05 0.000787937 
415 1 23.2284 1.4153 14.1998 0.00101202 0.00311693 0.00138909 
416 2 22.8828 3.48891 14.2227 0.00124318 -0.000430365 0.000701458 
417 1 18.7879 6.58386 17.6994 -0.000605957 0.00134788 0.000888881 
418 2 18.6105 4.47481 17.7787 0.00123993 -0.00231949 0.00145987 
419 1 23.7412 3.14781 17.6343 0.00171346 -0.00173826 0.00140768 
420 2 23.527 1.05808 17.9628 0.000180146 0.000742311 0.0019662 
421 1 19.0893 31.2838 21.5247 -0.00115001 0.00279139 -0.00090981 
422 2 19.4409 0.165821 21.5723 -0.000298138 0.00161444 0.00234792 
423 1 24.0746 1.28235 21.6333 0.00162644 -0.00143252 -0.000596119 
424 2 24.142 3.41191 21.5111 0.000327553 0.000994632 0.0020482 
425 1 19.6599 6.38073 25.1686 0.00396125 -0.00241556 0.00209472 
426 2 19.8546 4.28223 25.003 0.000221622 0.000315874 0.000140829 
427 1 24.1122 3.00502 25.1438 0.0039509 0.000642864 0.00120125 
428 2 24.5981 0.951578 25.2233 -0.000278018 -0.00135845 0.000157542 
429 1 25.7383 31.2379 -0.155917 0.000925923 -0.00437049 -0.00100369 
430 2 25.7209 0.155374 -0.13351 -0.00127005 -0.000808541 -0.00105061 
431 1 30.3986 1.44919 -0.150293 0.0017858 0.00326065 0.00225619 
432 2 30.5358 3.53624 -0.0420721 -0.000396198 0.0028945 -0.00012122 
433 1 16.397 13.0683 3.49165 0.00131625 -0.000867004 0.000865057 
434 2 16.7679 10.9754 3.35024 0.00115163 -0.00041988 0.00139348 
435 1 21.3563 9.83223 3.18486 -0.00083184 -0.00275127 0.00115677 
436 2 21.5496 7.72585 3.21896 0.000937074 -0.00292839 0.00146469 
437 1 17.592 4.74914 7.26896 -0.000452998 0.000113889 0.000118617 
438 2 17.1337 6.73272 6.99519 0.000602978 -0.000841455 -0.000592434 
439 1 22.0461 7.91112 7.34742 -0.00496618 -0.000129206 0.00157553 
440 2 22.0224 10.0243 6.92078 0.00205254 0.00249693 -0.000777779 
441 1 17.5473 12.9254 10.6615 0.0019652 0.0024087 0.00169298 
442 2 18.0274 10.8314 10.5221 -0.00142853 0.00118982 0.000858292 
443 1 22.2957 9.6393 10.6582 -0.0046818 0.00453773 -0.00336547 
444 2 22.7512 7.59766 10.6756 -0.000564216 -0.000291084 -0.000799361 
445 1 18.3239 4.79366 14.2061 -0.00168802 -0.00220792 -0.000882758 
446 2 18.0307 6.91256 14.2614 0.000439926 -0.0013923 0.00218187 