ITEM: TIMESTEP
501000
ITEM: NUMBER OF ATOMS
402
ITEM: BOX BOUNDS pp pp pp
-13.6534554574 13.6534554574
-13.6534554574 13.6534554574
-13.6534554574 13.6534554574
ITEM: ATOMS id type x y z  fx fy fz mol
1     1     6.848825        -0.755864       4.184839        18.653360       8.186227        -14.406880      0    
2     2     6.073344        1.475055        3.159903        -2.421380       24.014460       8.588690        0    
3     3     5.836678        3.307289        3.316011        -12.364016      -31.033640      -7.760620       0    
4     1     10.315386       -7.043396       -3.544058       7.108700        -10.142820      8.576880        1    
5     2     12.296360       -7.161153       -1.824839       -15.686894      1.414260        -3.330372       1    
6     3     11.731685       -6.984588       -0.010089       5.855240        8.926540        -0.701305       1    
7     1     -0.900761       -11.261581      -5.567537       20.497450       -17.589249      -2.311270       2    
8     2     -2.395996       -9.289034       -5.141394       -0.622190       14.733350       10.241547       2    
9     3     -3.857044       -9.238637       -6.214295       -18.762830      3.755070        -13.817000      2    
10    1     8.298863        9.248251        -5.071396       -13.196980      8.887300        1.069999        3    
11    2     10.238454       9.069310        -6.788567       6.575540        -6.839740       -7.396216       3    
12    3     9.831423        9.724395        -8.498244       0.373100        -8.652200       1.840380        3    
13    1     -1.336163       -3.284391       -2.830049       8.853970        -7.305690       -16.088089      4    
14    2     1.290459        -3.515345       -2.787480       -19.905164      10.860300       30.319690       4    
15    3     1.761927        -4.576993       -1.359861       14.398380       -5.593100       -10.785900      4    
16    1     3.562863        -9.488700       -10.313620      -5.836130       9.534580        24.686340       5    
17    2     2.918040        -10.811049      -8.055533       -4.480060       -11.499790      -31.927610      5    
18    3     3.798216        -12.485800      -7.829360       6.545445        2.261425        4.219050        5    
19    1     7.885640        -10.864882      -11.768898      -6.509210       10.779270       -10.371157      6    
20    2     8.138525        -10.826381      12.963342       17.015440       -13.381040      -22.968930      6    
21    3     8.098901        -10.609103      11.056656       -11.443300      -4.516900       39.147380       6    
22    1     11.509116       12.053307       12.332689       -14.446690      7.329810        20.541410       7    
23    2     13.409008       12.381827       10.804976       -1.352140       10.512610       -27.379850      7    
24    3     -12.284131      12.485353       11.728058       20.829890       -17.153000      12.336775       7    
25    1     -7.834374       10.375244       -13.074023      -28.307277      -1.956870       -4.057717       8    
26    2     -9.227408       8.518616        -12.933438      17.675710       6.501620        25.427223       8    
27    3     -8.543702       7.622971        12.882808       0.951700        -1.448170       -19.299790      8    
28    1     0.832230        4.520150        -1.223957       -14.565000      6.794088        -9.941970       9    
29    2     0.351889        4.399470        1.177514        12.868780       -23.513730      5.367053        9    
30    3     0.383953        4.724668        2.955399        -5.023900       11.190900       10.388480       9    
31    1     -7.071406       -8.057361       -13.408383      -17.435390      -11.374476      16.140420       10   
32    2     -7.429733       -7.817907       11.599446       7.595780        -27.443080      -15.673180      10   
33    3     -6.088650       -6.574666       11.117053       -4.507717       24.829650       -5.103400       10   
34    1     -6.117484       6.606450        7.871029        -13.771510      -2.844782       2.346730        11   
35    2     -5.930073       6.826157        10.409857       8.775541        -4.133933       -7.825590       11   
36    3     -6.115276       6.877094        12.193656       14.364300       12.636874       7.846420        11   
37    1     0.124158        -12.702143      11.058883       -3.894910       1.332743        -13.900070      12   
38    2     -0.439016       -13.405183      8.849618        12.874829       -1.113160       15.194800       12   
39    3     -1.308378       13.276721       7.360798        -10.402200      0.772230        -2.479930       12   
40    1     -9.269918       10.710067       7.087858        -3.814790       -14.241940      -10.049240      13   
41    2     -9.607143       10.455674       9.403496        -6.963010       11.189890       45.848140       13   
42    3     -10.414426      10.404885       11.121184       10.021000       2.553900        -35.878100      13   
43    1     10.985483       12.262916       -0.084912       -40.271290      -9.402500       25.445340       14   
44    2     13.411409       11.710771       -0.532183       45.359790       1.885860        -27.435510      14   
45    3     -12.010556      11.720809       -0.831980       -4.864360       11.749360       -6.257590       14   
46    1     0.908049        -3.331075       11.103119       16.693910       13.487330       -21.209279      15   
47    2     3.018468        -2.227048       10.911874       -28.282220      -26.636480      16.271190       15   
48    3     4.010943        -3.628780       11.786617       7.197750        -6.220550       6.655390        15   
49    1     11.021330       7.548142        10.054386       6.212848        -5.856711       17.160520       16   
50    2     11.623619       8.936145        8.239077        3.213620        -4.574210       -14.855363      16   
51    3     13.489454       9.180848        8.250543        -11.538660      16.557000       -4.287274       16   
52    1     3.666737        -11.174773      8.217193        23.678260       -1.601010       -2.205453       17   
53    2     5.708045        -9.676787       8.884757        -45.054790      21.140650       4.863914        17   
54    3     5.179367        -7.830259       8.553445        22.192300       -20.198480      -0.937900       17   
55    1     -11.015327      -2.263828       8.815101        -16.528260      16.025657       -8.840988       18   
56    2     -12.238816      0.058882        8.983463        11.524946       -21.362450      2.988660        18   
57    3     -12.164415      1.035000        7.316909        1.860250        9.022420        5.558200        18   
58    1     0.806874        5.770556        11.555531       15.926580       -3.506160       -20.666520      19   
59    2     -0.008468       6.253641        -13.377619      -6.816679       -7.217350       26.545138       19   
60    3     -1.465522       7.441330        -13.535890      -14.690024      6.155040        -1.482090       19   
61    1     -10.665703      7.464893        -6.064655       9.084719        7.601429        4.452685        20   
62    2     -9.739940       5.446531        -4.568040       -18.383191      -26.236099      -21.649578      20   
63    3     -8.184454       5.838487        -3.812560       10.602680       17.139130       13.271410       20   
64    1     -11.469600      -11.520457      1.274194        -0.927070       13.337640       9.450330        21   
65    2     -10.740103      -9.248602       0.210650        -9.195410       6.207903        -6.861770       21   
66    3     -10.146719      -7.828145       -0.816525       4.613860        -4.688429       0.569240        21   
67    1     12.055078       2.097926        11.516058       -16.350860      -13.363000      -33.225407      22   
68    2     11.447709       2.982901        9.343735        10.338240       11.717370       42.136530       22   
69    3     10.635995       2.966626        7.701601        15.565300       -1.389100       -6.447700       22   
70    1     -10.157271      4.394142        7.990948        -10.772020      9.836377        -10.899880      23   
71    2     -11.381956      6.260273        7.176920        19.196170       -11.147314      8.023320        23   
72    3     -11.843549      7.255175        8.733331        -9.502500       -0.697300       -2.442500       23   
73    1     13.534877       -11.714578      -2.428849       -23.372443      13.368588       -0.349888       24   
74    2     11.493999       -11.389033      -4.044101       34.744050       -18.465320      -11.764560      24   
75    3     12.045218       -11.358583      -5.857192       -14.886110      -2.754550       16.239760       24   
76    1     -10.032733      -11.603460      9.271824        3.000841        -13.750338      14.222104       25   
77    2     -9.393891       -12.702359      11.645756       6.368540        26.813780       -7.232778       25   
78    3     -10.722560      -12.482771      12.901516       -7.438420       -15.935180      0.250700        25   
79    1     4.402001        6.683820        -12.408577      -5.583198       -4.127010       -0.062230       26   
80    2     4.419458        9.061744        -11.467898      7.666540        21.105930       0.013130        26   
81    3     4.476247        10.905045       -11.209523      2.708360        -19.127580      -3.757930       26   
82    1     -3.737471       11.330262       1.437019        10.233240       -9.311390       8.750030        27   
83    2     -5.776957       11.302726       -0.101050       -7.565235       -3.564060       -3.628920       27   
84    3     -7.236069       11.795052       0.879449        -1.104161       21.531530       -8.814550       27   
85    1     -1.964190       3.883361        8.109006        -12.339650      1.971380        16.490240       28   
86    2     -3.521993       3.509525        9.884857        10.680760       23.446240       -24.024100      28   
87    3     -4.835318       3.207990        11.014769       2.395780        -24.582440      11.072600       28   
88    1     -8.630849       4.380276        -8.635248       -6.571140       -3.459830       -1.420250       29   
89    2     -8.937657       1.844766        -8.376766       13.068758       22.489360       2.534550        29   
90    3     -9.623108       0.232837        -8.454424       -8.692800       -20.282800      -0.874520       29   
91    1     9.192024        6.506464        4.589401        14.995867       11.020146       -30.995430      30   
92    2     8.525363        4.464944        5.814348        -24.907210      -7.887802       51.025490       30   
93    3     7.980684        3.160134        6.959013        7.501740        -4.100830       -25.284400      30   
94    1     -10.310916      -6.010389       3.532003        7.492717        7.035021        7.413750        31   
95    2     -12.243866      -4.344928       3.881546        -1.880520       21.185960       -25.866360      31   
96    3     -12.169256      -2.465890       3.546939        -14.304150      -31.740340      23.739500       31   
97    1     8.256390        12.322672       7.203343        1.641000        -4.870970       -17.776423      32   
98    2     7.990307        12.634329       9.523606        12.241110       12.900631       -2.172550       32   
99    3     8.639363        -12.886052      9.635554        -14.451310      -10.038500      11.839710       32   
100   1     12.588183       0.388130        -9.962056       16.423230       -13.715778      -5.982240       33   
101   2     11.504317       0.001875        -7.599092       -3.255040       50.143120       -1.895234       33   
102   3     12.709891       0.830449        -6.438372       -14.343870      -41.303660      8.906620        33   
103   1     13.022481       10.022978       -4.274619       7.971405        -8.423610       1.408280        34   
104   2     -12.872572      11.425348       -5.926386       -29.301456      15.582150       -14.013040      34   
105   3     13.274669       12.628523       -6.932911       33.159000       -0.494300       16.278560       34   
106   1     4.137842        -0.086444       -2.856258       -5.841510       -7.179950       17.667200       35   
107   2     4.005167        0.654865        -5.305317       9.524040        -4.205610       -21.352635      35   
108   3     3.328482        2.390590        -5.502294       -2.432780       10.293400       1.919200        35   
109   1     -12.963772      -8.090618       -5.220453       -1.100400       -10.192940      2.991910        36   
110   2     -11.185899      -9.746776       -4.274931       -1.855038       6.095200        -8.257810       36   
111   3     -9.809702       -8.846846       -3.470055       8.149000        4.284080        4.420000        36   
112   1     -7.433749       2.847608        -12.327101      2.793180        12.168200       -4.911506       37   
113   2     -7.816299       3.256700        12.402381       -9.004500       1.973620        29.001540       37   
114   3     -7.665900       2.991652        10.668680       7.879200        -16.053350      -23.801840      37   
115   1     -10.400860      1.208208        -3.699166       -28.296890      0.349900        -1.535490       38   
116   2     -11.747719      -0.498399       -4.610885       46.785740       20.381170       25.884150       38   
117   3     -13.038538      -1.691689       -4.908697       -17.311100      -20.451000      -31.544500      38   
118   1     -10.182775      -8.322066       -10.431346      -20.552990      -10.086780      -3.451808       39   
119   2     -12.502856      -8.021012       -10.135879      5.370265        -0.743790       -11.904667      39   
120   3     12.968823       -8.334909       -10.028921      16.123100       8.672560        4.763831        39   
121   1     -11.796670      -10.960553      5.307461        1.655100        -6.016980       20.097572       40   
122   2     -9.216871       -10.806682      5.412008        27.645440       -9.786977       -23.727027      40   
123   3     -7.389926       -11.214742      5.556097        -27.835300      17.057860       -4.733162       40   
124   1     1.713690        0.488103        4.356454        -15.076453      8.428960        13.605880       41   
125   2     -0.867915       1.209031        4.618061        -3.199860       -5.999078       -14.144180      41   
126   3     -1.508108       2.539780        3.382577        13.972500       -4.019400       3.456910        41   
127   1     3.143504        -10.824245      -3.706394       9.195430        -1.675920       12.030100       42   
128   2     1.881893        -8.527288       -4.199786       -13.837950      3.750980        -3.489615       42   
129   3     2.085596        -7.025891       -2.987896       1.498200        -2.036650       -2.771700       42   
130   1     0.064810        -9.712969       5.203322        -16.960996      11.192230       2.449520        43   
131   2     -2.402059       -8.648167       5.081643        10.844347       -28.628620      -10.650170      43   
132   3     -2.171896       -6.827041       4.642200        7.896200        14.979320       1.857800        43   
133   1     -2.415408       -9.694482       -0.224731       -17.237737      -15.150410      22.966128       44   
134   2     -0.623781       -7.854016       0.441567        11.010080       17.835917       -33.059680      44   
135   3     -1.208152       -6.665796       1.798024        1.816900        0.167670        8.748780        44   
136   1     -5.899476       11.514192       -8.917774       25.614780       18.041735       -6.227364       45   
137   2     -4.404432       -13.593864      -8.807438       -13.622490      -28.187390      12.877870       45   
138   3     -4.094023       -13.305983      -7.018336       6.582490        -3.918915       -18.407240      45   
139   1     9.413168        -4.101311       -8.873803       16.683770       1.562720        -4.369498       46   
140   2     11.401725       -4.884709       -7.693925       -6.375173       8.840523        5.218780        46   
141   3     11.922897       -6.107176       -9.018369       1.451760        -7.500835       -1.143990       46   
142   1     -9.408462       12.429086       -9.402548       1.514240        7.943210        3.247790        47   
143   2     -9.054550       -13.353626      -11.159772      7.138150        -46.874569      4.799790        47   
144   3     -8.636093       -11.977547      -12.219586      -11.026000      36.756120       -14.186100      47   
145   1     -13.025950      7.885738        12.815844       6.677729        8.409670        -2.812440       48   
146   2     -11.979990      5.761367        11.603965       -7.581850       -11.868120      -8.219917       48   
147   3     -10.234192      6.317753        11.025059       -5.163500       12.183230       9.544200        48   
148   1     0.151205        -6.891961       -9.178185       -25.438855      9.039380        -5.600660       49   
149   2     -2.255734       -7.947421       -9.572417       37.043400       -10.951360      -0.487680       49   
150   3     -2.751008       -9.655751       -9.141449       -17.008000      2.145900        13.772800       49   
151   1     -4.434352       1.008307        -5.398910       1.539850        -7.483500       31.502640       50   
152   2     -5.274653       3.246462        -6.283594       -26.821000      -4.293840       -5.252910       50   
153   3     -6.674654       3.710718        -5.065469       18.254500       12.019850       -24.381890      50   
154   1     -4.398576       -11.832358      12.754656       -2.858050       3.065250        13.358375       51   
155   2     -4.950934       -11.687316      -12.243560      17.543090       2.892940        -17.625340      51   
156   3     -5.396605       -11.078958      -10.498299      -6.772640       -1.271500       3.916200        51   
157   1     -7.046522       9.898768        -5.772868       -22.001660      -0.961310       -6.986210       52   
158   2     -5.039630       8.723257        -5.300690       24.097660       -5.784800       16.088394       52   
159   3     -5.094869       7.371418        -4.006636       -2.014878       3.854530        -5.919350       52   
160   1     1.344265        12.986952       -2.800981       9.103380        -21.576150      4.136610        53   
161   2     3.684745        11.779064       -2.620083       -14.478490      19.352740       9.236630        53   
162   3     4.886693        11.915817       -1.228214       6.882060        2.735987        -11.730110      53   
163   1     5.833956        -5.628849       -10.879525      -1.009660       -4.357250       0.390980        54   
164   2     6.937592        -6.200308       -13.167783      1.416610        28.001700       -9.285460       54   
165   3     8.015784        -6.106693       12.709927       -5.753970       -23.137652      7.927330        54   
166   1     -2.549945       -8.837184       9.921967        6.520540        4.178660        6.938410        55   
167   2     -4.127676       -10.015662      8.291366        -15.676590      8.548390        11.318144       55   
168   3     -5.094551       -10.906107      7.047738        8.585680        -5.872852       -21.238710      55   
169   1     5.818517        5.260422        10.084994       -21.338660      3.591840        18.178120       56   
170   2     7.571952        3.771846        10.400855       14.442517       -6.544370       -13.186550      56   
171   3     7.472754        2.087112        9.646560        3.655910        -1.401700       -2.214777       56   
172   1     -6.399761       -2.179928       -4.327509       -0.467266       -14.070320      3.646220        57   
173   2     -5.680827       -3.665639       -2.605168       -3.389630       24.786400       -16.420030      57   
174   3     -5.736856       -4.620098       -1.109253       0.282400        -9.908760       9.658520        57   
175   1     -3.884398       5.548422        -9.910638       3.164000        -28.956596      3.451260        58   
176   2     -4.433237       7.636373        -10.889840      -18.298760      30.878280       11.110964       58   
177   3     -4.292290       7.357841        -12.786390      17.780330       -4.780400       -16.540200      58   
178   1     -12.891655      9.117681        -10.247209      10.324220       -12.505230      -11.191320      59   
179   2     12.320157       10.337204       -10.933830      4.602953        13.053120       6.348550        59   
180   3     10.630658       10.565443       -11.289063      -13.813150      -0.789020       5.494380        59   
181   1     8.973020        -9.804178       4.602260        -6.986710       5.525750        -4.503360       60   
182   2     8.428045        -8.425657       2.402987        11.277140       5.413740        20.644400       60   
183   3     9.270972        -8.798725       0.796681        0.045340        -14.134280      -18.107160      60   
184   1     9.052772        -4.530578       3.577257        8.000600        10.734490       -14.870810      61   
185   2     11.043029       -4.124655       1.858813        -1.953700       -2.584880       4.176700        61   
186   3     12.744657       -4.070544       1.085247        -8.749443       -7.122070       8.937194        61   
187   1     -9.745140       -6.724083       7.906781        2.812650        -28.368010      0.188940        62   
188   2     -7.626011       -5.116286       7.456298        -21.877520      40.368530       -4.845353       62   
189   3     -6.075385       -5.687456       8.215270        22.937700       -15.843600      5.320600        62   
190   1     3.304838        -6.756092       4.456942        -16.272612      -3.348090       -3.711443       63   
191   2     1.864285        -5.456967       2.748929        32.683170       10.724600       -1.494190       63   
192   3     2.949127        -4.751476       1.324702        -19.530110      -5.644316       5.317000        63   
193   1     -5.064763       4.043412        -1.518158       -10.332540      -15.061830      -0.669280       64   
194   2     -3.756406       6.133730        -1.387718       18.473650       13.759590       9.573030        64   
195   3     -5.266245       7.180409        -1.069264       -1.114900       1.094780        -7.529500       64   
196   1     4.933028        9.063158        3.701253        26.482895       -5.636159       4.617250        65   
197   2     2.959034        8.157664        2.809752        -18.829940      9.050429        5.448660        65   
198   3     1.351364        7.330054        2.643710        -3.481900       -5.220500       -2.450900       65   
199   1     7.738402        9.156441        12.434142       17.970570       -19.878520      5.080520        66   
200   2     7.330582        11.562682       13.364585       -14.710690      -18.049167      10.662640       66   
201   3     7.130721        11.269358       -12.118666      -1.283500       30.528600       -11.593940      66   
202   1     -6.615146       -7.615578       -9.224500       -1.892110       0.214670        -8.510900       67   
203   2     -7.331987       -9.767806       -7.871792       -1.342590       0.971640        5.566620        67   
204   3     -7.801898       -11.140400      -9.054205       4.988100        5.026659        7.443100        67   
205   1     -12.117047      9.462513        3.153824        -27.796760      -15.370643      8.892150        68   
206   2     -10.652122      11.170597       2.148295        39.395850       23.121413       -17.300800      68   
207   3     -10.020101      12.370613       0.863007        -3.216700       -16.075291      17.915740       68   
208   1     7.772900        2.144074        -6.715765       0.931227        21.441650       -4.825000       69   
209   2     7.909814        4.631096        -5.681184       -11.932570      -17.295980      39.778750       69   
210   3     7.301317        4.445652        -3.792081       6.032270        -6.704200       -29.403780      69   
211   1     5.052533        7.719498        -1.873588       32.336740       12.459800       -7.074780       70   
212   2     3.995531        5.333178        -1.902071       -36.751740      -3.196340       1.435860        70   
213   3     4.471023        4.427061        -3.446266       11.880700       -10.426820      5.340800        70   
214   1     5.478175        -5.774422       -4.338975       -2.036210       -0.459680       20.129060       71   
215   2     3.552032        -5.472346       -6.160488       -6.816472       -13.692830      -29.001580      71   
216   3     2.988771        -3.702775       -6.147634       8.920990        11.299790       12.872670       71   
217   1     -6.885089       -8.381812       0.520490        -6.476760       2.534870        -1.266323       72   
218   2     -5.976360       -6.347656       1.887705        -7.175890       4.445750        -0.415850       72   
219   3     -5.991416       -6.791479       3.742809        9.961000        -8.878100       6.656760        72   
220   1     11.859497       -13.466148      4.480276        22.537420       -0.629400       -6.031930       73   
221   2     13.598469       12.579476       5.997107        -2.024709       17.868900       3.660150        73   
222   3     12.670649       12.094829       7.607437        -18.522710      -22.779800      3.854894        73   
223   1     -3.568384       -12.192109      2.634722        -16.201036      -14.298570      7.763720        74   
224   2     -6.074667       -11.474696      1.952012        36.969200       6.040295        -3.961000       74   
225   3     -7.108511       -12.620900      2.868497        -20.698920      -1.196800       4.304200        74   
226   1     -2.240234       -2.526422       -6.923438       7.152170        -3.917570       3.269827        75   
227   2     0.203656        -2.251533       -7.685041       1.705900        3.887560        5.493882        75   
228   3     1.950125        -2.346972       -8.331632       -3.549600       -0.761100       -8.498400       75   
229   1     11.607243       -1.831402       6.425278        4.535030        24.028570       1.019100        76   
230   2     10.251116       -1.421689       8.650343        -11.308730      -18.936649      0.159650        76   
231   3     9.545490        0.298066        8.737255        8.042720        0.670340        1.453372        76   
232   1     0.456925        9.656545        -8.685584       -7.009420       2.103920        -16.372550      77   
233   2     -1.121978       10.466522       -7.212843       -3.341230       9.994298        26.011299       77   
234   3     -1.541423       12.240842       -6.791319       -0.328600       -6.393900       -9.017890       77   
235   1     -9.706933       4.588478        1.203249        -0.521643       -6.647790       -2.900900       78   
236   2     -7.195066       4.803145        1.745457        -7.218240       2.827990        6.685730        78   
237   3     -6.745412       6.513404        1.202444        5.038720        7.869690        -4.680802       78   
238   1     8.131217        -1.745671       -12.478116      12.630050       -1.697683       2.271410        79   
239   2     6.966506        -1.973005       12.529309       -16.127700      28.366370       -8.677826       79   
240   3     7.074675        -3.418064       11.371475       2.448600        -28.220700      6.289590        79   
241   1     10.532311       6.338072        -12.401325      -1.437379       4.196830        -3.857850       80   
242   2     8.918694        7.137377        -10.493726      -9.059240       -39.713510      6.740230        80   
243   3     8.285177        8.845868        -10.755620      6.718100        34.909350       -0.904280       80   
244   1     -5.259110       11.460434       10.986745       1.354430        -4.466120       -30.047203      81   
245   2     -4.422389       12.763783       9.238688        12.272340       11.941830       27.065230       81   
246   3     -3.898015       -13.167081      8.081303        -14.505800      -17.372510      -1.805070       81   
247   1     5.653245        -3.143157       7.625960        16.297990       8.323520        2.877400        82   
248   2     5.560632        -0.543823       7.796698        -10.638386      -9.715550       -5.151130       82   
249   3     5.199161        1.161413        8.313957        -0.583780       1.705970        6.313750        82   
250   1     -13.469740      4.117650        -8.452215       21.246480       2.620770        9.420222        83   
251   2     11.723477       5.030335        -7.343265       -25.646010      -20.294650      -18.495670      83   
252   3     11.723354       6.132515        -5.893589       4.970790        17.868600       19.385400       83   
253   1     2.449948        5.888725        6.092543        0.360790        29.935390       -9.202509       84   
254   2     3.316885        3.478630        6.519029        -4.292100       -24.301660      0.841991        84   
255   3     5.082404        3.127572        5.943246        4.349760        -1.083169       13.533800       84   
256   1     -0.208089       -5.151278       7.155808        29.413300       5.925770        -5.011260       85   
257   2     -2.294565       -4.207497       7.509170        -40.997970      -28.485860      9.431700        85   
258   3     -3.402385       -5.619426       6.854075        6.144230        21.675330       -2.709400       85   
259   1     -0.538414       2.331501        -6.374907       7.315965        24.327600       4.689505        86   
260   2     -1.871798       4.561377        -5.903421       -15.992740      -27.118170      -0.871230       86   
261   3     -2.883387       5.862120        -5.066127       16.569590       8.272110        -2.482033       86   