ITEM: TIMESTEP
0
ITEM: NUMBER OF ATOMS
1710
ITEM: BOX BOUNDS pp pp pp
-1.3281342083874591e+01 1.3281342083874591e+01
-1.3281342083874591e+01 1.3281342083874591e+01
-1.3281342083874591e+01 1.3281342083874591e+01
ITEM: ATOMS id type x y z mol 
1 5          1.886680221         -4.742339896          11.21828358 0 
2 5           3.48271873         -6.021964827          12.26425447 0 
3 6          2.681670389         -3.697545544           11.9522319 0 
4 6          3.794871105         -4.604523931           12.5621811 0 
5 2          2.074609179         -3.052063062          12.60954101 0 
6 2          3.113765765         -2.929015504          11.33812049 0 
7 2          3.803595785         -4.327489846         -12.93270382 0 
8 2          4.681350055         -4.262345053          12.06593512 0 
9 9          2.715971837         -5.861184963          11.08549726 0 
10 3          1.493520189         -4.461780016          10.29559305 0 
11 3          1.076476727         -5.172104596          11.77012457 0 
12 3          2.956058392         -6.554325114          13.09790054 0 
13 3          4.419383946         -6.610895738          12.09782389 0 
14 4          11.68748262         -9.280566257         -8.737105824 1 
15 7          3.044028018          9.703735478          6.965669277 2 
16 1          2.454766912          8.403730904           6.30840793 2 
17 1          4.502606229          10.12312723          7.246174288 2 
18 8          3.459901395          7.459898278          5.895065359 2 
19 8          4.708641182          11.54247399          7.440289074 2 
20 8          1.345578794          8.625767316           5.37963898 2 
21 8          5.181724188          9.272309395          8.190101974 2 
22 10          5.222262659          9.824132429          5.899217778 2 
23 10          1.761154578          7.756187424          7.552987351 2 
24 5          1.075287595          -10.9881993          -4.17482766 3 
25 5         -1.142799515         -10.72429956         -3.842737029 3 
26 6         0.6264032702         -12.03225846         -3.139303047 3 
27 6        -0.5297675704         -11.29358487         -2.579753395 3 
28 2          1.398692587         -12.27654582         -2.391751863 3 
29 2         0.3462576739         -12.98565994         -3.567703549 3 
30 2        -0.2522827104         -10.50152687          -1.88890323 3 
31 2         -1.221034479         -12.00953069         -2.047581467 3 
32 9         -0.130342169         -10.55107843         -4.709843772 3 
33 3          1.625465178          -11.4492107         -4.961880118 3 
34 3          1.629142054         -10.11793015         -3.836153843 3 
35 3         -1.682036625         -9.845474802         -3.647557888 3 
36 3         -1.811963145         -11.36217084         -4.355705796 3 
37 4           7.89241047          -8.34732034          12.03609281 4 
38 7          10.00381007         -10.67328389          -4.23221508 5 
39 1          10.13954005         -9.142282965         -4.480503463 5 
40 1           11.1522292         -11.70915292          -3.87568664 5 
41 8          8.994870053         -8.700102101         -5.257885727 5 
42 8          11.49445385         -12.55003237         -4.990818071 5 
43 8          11.54069506          -8.72433748         -4.777012328 5 
44 8          12.24563696         -11.06740456         -3.259556568 5 
45 10          10.68946704         -12.62800001         -2.741290141 5 
46 10          9.749511778         -8.584432475         -3.018422706 5 
47 5          -11.1538884         -6.702681746          8.494134782 6 
48 5         -9.549307449         -6.927171113          7.018849704 6 
49 6         -11.21636672         -5.452500536          7.591339022 6 
50 6         -10.32614783         -5.793937766          6.402289908 6 
51 2          -10.9756105         -4.512737158          8.009836895 6 
52 2         -12.26779322         -5.528551926          7.252505771 6 
53 2         -9.675672331         -5.006661588          6.076636253 6 
54 2          -10.8650534         -6.121500535          5.459784757 6 
55 9         -10.54393841         -7.678041574          7.723100055 6 
56 3         -12.07672015         -7.041501424          8.966007343 6 
57 3         -10.43144249         -6.589220459          9.331327668 6 
58 3         -8.688379089           -6.6000123          7.649314837 6 
59 3         -9.168902483         -7.624028223          6.229466696 6 
60 4          6.444544324          8.168538196          9.192076209 7 
61 7         -1.884988147          3.424049061          7.943260002 8 
62 1         -2.235302943          4.109870743          6.608554027 8 
63 1         -2.619048783          3.481788422          9.369851286 8 
64 8         -1.636222248          3.389519185          5.474310632 8 
65 8         -1.664630187           3.58198235          10.44739751 8 
66 8         -2.127012912          5.534394411          6.584085564 8 
67 8         -3.736528828          4.428216721          9.407392109 8 
68 10         -3.364458963          2.050475362          9.516583666 8 
69 10         -3.836787331          3.762063966          6.489621611 8 
70 5         -0.857787106          8.918694281          8.070726988 9 
71 5         -3.065756073          8.661625561          8.714752896 9 
72 6         -1.617599537          8.755811751           6.78649288 9 
73 6         -3.082685301          8.802878644          7.219998383 9 
74 2         -1.361716291          7.868012565           6.35848565 9 
75 2         -1.433741351           9.59822574          6.132373869 9 
76 2         -3.811924887          8.083284876          6.768524888 9 
77 2         -3.469794995          9.804452396          7.015645449 9 
78 9         -1.825800068          9.340933795          9.009751615 9 
79 3        -0.0790432072          9.676016124          7.920461438 9 
80 3        -0.5025273769          7.923332982          8.371305189 9 
81 3         -2.976923991          7.595998735          8.988574657 9 
82 3         -3.904526473          9.069987593          9.152092044 9 
83 4          2.457221659        -0.4683512371          0.714431989 10 
84 7         0.3321585174         -3.896457456          1.323922777 11 
85 1         0.9458620991         -3.237886566        0.01943337399 11 
86 1         0.2151290284         -5.418956966          1.698881218 11 
87 8          1.489885713         -4.176496632        -0.8916188443 11 
88 8        -0.1132380025         -5.494028295           3.12585357 11 
89 8          1.594684161         -2.016043829         0.2810579042 11 
90 8        -0.5601289912         -6.236074802         0.7525717815 11 
91 10          1.660166816         -5.961838335          1.603861256 11 
92 10        -0.3772445447         -2.773042473        -0.7194257685 11 
93 5          10.14015815          2.889654432          10.20405107 12 
94 5            9.6488017          1.170109309          8.823989634 12 
95 6          11.07938334          1.834100357          10.68713597 12 
96 6          10.98634558         0.8092208045          9.504444147 12 
97 2          10.88505509          1.396971898          11.66778839 12 
98 2          12.06824724          2.299838818          10.67398264 12 
99 2          11.04093643         -0.222012029          9.791516524 12 
100 2          11.76388457         0.8914041787          8.748510428 12 
101 9          9.041879485           2.11313659          9.659982654 12 
102 3           10.6766996          3.499824948          9.484446064 12 
103 3          9.772958853          3.531962834          11.02329718 12 
104 3          8.988951326         0.2939361061          8.754056412 12 
105 3          9.775109843          1.645430253          7.876827006 12 
106 4         -6.197420504         -11.34052208         -12.59152568 13 
107 7          9.185238419         -4.184783575        -0.6943751678 14 
108 1          9.978391071          -5.32664453        0.04266568821 14 
109 1          8.689270995         -2.789843369        -0.2322758671 14 
110 8          9.362970159         -6.595158322        -0.3144663591 14 
111 8          9.548108073         -2.000198097         0.6357392613 14 
112 8          10.28045568         -5.049984446          1.434422826 14 
113 8          8.116698031         -2.100880694         -1.372893413 14 
114 10            7.4328422          -3.11982887         0.7057039911 14 
115 10          11.33350948         -5.438195247        -0.5999378527 14 
116 5         -11.08500795         -3.219300241         -5.790953345 15 
117 5         -9.988918312          -4.94614387          -4.97788103 15 
118 6         -9.722327488         -3.015987015         -6.477855825 15 
119 6         -8.976800825         -4.211273773         -5.815168992 15 
120 2         -9.143290539         -2.062703606         -6.273529328 15 
121 2         -9.805133556         -3.118435073          -7.55186428 15 
122 2         -8.175644027         -3.813993905         -5.151379115 15 
123 2         -8.477423914         -4.873143384         -6.506961406 15 
124 9           -10.838311         -3.940785817         -4.563820043 15 
125 3         -11.73301275         -3.781061268         -6.426301151 15 
126 3         -11.58348605         -2.296553559         -5.542564214 15 
127 3         -9.650062836         -5.556261468         -4.127056036 15 
128 3         -10.64261535         -5.562461835         -5.572514394 15 
129 4          -8.46327205          2.592255119          1.213170621 16 
130 7          9.763542012          9.539596346         -10.74460359 17 
131 1          9.389483845          10.51825601         -11.91912401 17 
132 1          8.889462256          9.046675306         -9.548686333 17 
133 8          7.992278338          10.70091166          -12.1440865 17 
134 8          9.659764935          8.839499218         -8.365136749 17 
135 8          10.24492585          10.39065115         -13.04391979 17 
136 8          7.643671276           9.72398647         -9.382882575 17 
137 10          8.409965536          7.629293315         -9.960652028 17 
138 10          9.849067383          11.91968249         -11.43967445 17 
139 5         0.3419460087          -7.32892413         -2.796413339 18 
140 5         -1.490694952         -6.127638724         -2.171321468 18 
141 6         -0.573572487         -7.152662791         -4.060545863 18 
142 6         -1.835756553         -6.507341174         -3.618912358 18 
143 2        -0.8508213343         -8.108319404          -4.51923198 18 
144 2        -0.1104209165         -6.609449723         -4.862425615 18 
145 2         -2.812391896         -7.094137504         -3.750658673 18 
146 2         -2.004614769         -5.533628129         -4.175861908 18 
147 9        -0.5133258706         -7.123267684         -1.735415597 18 
148 3          1.201808717         -6.643152707         -2.701993279 18 
149 3         0.6440203402         -8.401713226         -2.813097966 18 
150 3         -2.328138844         -5.941359233         -1.527160815 18 
151 3        -0.9808772459         -5.142409996         -2.177673803 18 
152 4         -10.23969206         0.8996978266          10.24758008 19 
153 7          6.911620009         -6.801324503         -10.71078704 20 
154 1          8.061552519         -6.650535709         -11.77108573 20 
155 1          5.496693813         -7.451078265          -10.9097521 20 
156 8          8.206025597         -7.636092835         -12.79709203 20 
157 8          4.496580992         -6.876755397         -10.01064582 20 
158 8          9.339169107         -6.204333348         -11.21058733 20 
159 8          5.142187321         -7.597733927         -12.26656052 20 
160 10          5.722743693         -8.915349387         -10.38121943 20 
161 10          7.619313725         -5.356125447         -12.52086639 20 
162 5           12.5840418          10.20739014         -8.946980556 21 
163 5           12.6094076          10.46638259         -6.761250878 21 
164 6          11.79207017          11.46092157         -8.806603465 21 
165 6          11.82491253          11.72310886         -7.277523826 21 
166 2          10.74813161          11.40677819         -9.169488528 21 
167 2          12.35566342          12.19127197         -9.384910954 21 
168 2          10.83850471          11.79092791         -6.907672764 21 
169 2          12.40457071          12.56270827         -7.045048396 21 
170 9          12.43217773          9.477390243         -7.709931074 21 
171 3         -12.94551737          10.47622292         -9.073720607 21 
172 3          12.35625052          9.606337798         -9.849120338 21 
173 3          12.27171558          10.19792529         -5.835346869 21 
174 3         -12.89214126          10.68052205         -6.716855304 21 
175 4          11.14169406          8.436290407         -7.526864933 22 
176 7         -12.66376049         -12.34382419           9.33985566 23 
177 1         -11.81492256          13.08403109           8.70081208 23 
178 1         -12.62345987         -10.77287446          9.167020329 23 
179 8          -11.9543735          11.86653077           9.46065193 23 
180 8         -12.81275893         -10.07803111          10.42515108 23 
181 8         -10.46013206          13.25732108          8.309961978 23 
182 8         -11.62112357         -10.34571984          8.235719783 23 
183 10          12.62481816         -10.47736537          8.388155578 23 
184 10         -12.53282939          12.68747056          7.458828323 23 
185 5         -4.812825217         0.3855774387         -2.384002275 24 
186 5         -2.553948068       -0.07886665912         -2.272654502 24 
187 6         -4.431193527         0.4560441914        -0.9256065866 24 
188 6         -3.108283697        -0.2161951043        -0.8763940879 24 
189 2         -5.189985817        0.08989635116        -0.2622976625 24 
190 2         -4.338112715          1.467053311        -0.5804956827 24 
191 2         -3.368447473         -1.294240434        -0.6395387215 24 
192 2         -2.476504274         0.1161880261        -0.0256764029 24 
193 9         -3.743308503        -0.2440590848         -3.073381284 24 
194 3         -5.075892406          1.437688775         -2.728775941 24 
195 3         -5.783339207       -0.09931924619         -2.493114851 24 
196 3         -1.768420983        -0.6901342018         -2.587809221 24 
197 3         -2.225348492         0.9407653752         -2.450445715 24 
198 4         -3.780930649          4.841385549         -10.54871702 25 
199 7         -5.972205404         -10.03439648           8.62752449 26 
200 1          -7.00871257         -8.826916003          8.533682447 26 
201 1         -4.461358419         -9.950477589          9.068392974 26 
202 8         -6.980668453         -7.753283553          9.539866071 26 
203 8          -3.95302359         -8.638782277          9.342427838 26 
204 8         -8.291177934         -9.379245507          8.266062486 26 
205 8         -4.159682113         -11.00705651          10.00152493 26 
206 10         -3.638716739         -10.34930043          7.794820178 26 
207 10         -6.541403384         -8.200574273          7.163546237 26 
208 5          9.499249502          1.258622656           4.24205299 27 
209 5          8.624623204        -0.7319775059          4.883603082 27 
210 6          8.313476949          1.686908538          5.076667603 27 
211 6          7.810476548         0.3167313251          5.589969353 27 
212 2          7.647394584          2.143641086          4.365062008 27 
213 2          8.546920974          2.352187279          5.889807497 27 
214 2          6.702273165          0.117092607          5.407002832 27 
215 2          8.050290762         0.2725047018          6.705671696 27 
216 9          9.850020315       -0.09669842978          4.664902486 27 
217 3          10.27089858          2.017793451          4.328792799 27 
218 3          9.111292337          1.127147398          3.160156295 27 
219 3           8.12812282         -0.869104263          3.899503047 27 
220 3          8.768721398         -1.639370271          5.449098283 27 
221 4         -11.59021067           4.52692906         -8.417962899 28 
222 7         -3.339812359          7.806171744         -7.644101174 29 
223 1         -1.941029917           7.15246928          -7.31562407 29 
224 1         -4.350853579          7.446338226         -8.735742683 29 
225 8         -1.972842158          5.794070542         -7.662284274 29 
226 8         -3.923332676          6.483459949         -9.664282038 29 
227 8         -1.324146375           7.50101111         -6.050187312 29 
228 8          -5.63974479          7.244326261         -8.192271747 29 
229 10         -4.415959293          8.718376624         -9.545951099 29 
230 10        -0.9707039204          7.771512579         -8.379764443 29 
231 5          9.918251043          -8.74583489          9.999124155 30 
232 5          9.308759993         -6.574048099          10.59055154 30 
233 6          10.93450038         -7.735889385          9.514876118 30 
234 6          10.75421126          -6.50626751          10.41811571 30 
235 2          10.83351089         -7.459657534          8.479749303 30 
236 2          11.91989538         -8.115837924          9.509990657 30 
237 2          11.11557629         -5.507850694          10.08968063 30 
238 2          11.17261542         -6.655025795          11.37614988 30 
239 9          9.029184788         -7.928988013          10.74022777 30 
240 3          10.47427847         -9.411384543          10.60660468 30 
241 3          9.329881118         -9.142368187          9.185227125 30 
242 3          8.836963319         -6.223561626          9.601410232 30 
243 3          8.984231598         -5.898356255          11.41537986 30 
244 4           2.13604179          1.950968732          8.851588184 31 
245 7         -10.74672712          3.066296124         -12.63592213 32 
246 1         -11.75227749          1.944711626         -12.02711576 32 
247 1         -9.844289954          3.025968169           12.6270828 32 
248 8         -12.03203196         0.8838997127         -12.90080774 32 
249 8         -10.22453727          1.905823212          11.76486928 32 
250 8         -12.94012941          2.422783799         -11.30199216 32 
251 8         -9.675877241          4.315869238          12.01980287 32 
252 10         -8.421835699          2.718599467          13.18626745 32 
253 10         -10.91032556          1.363912173          -10.8597191 32 
254 5          1.834500292          2.123574004           5.94231313 33 
255 5          1.890349272          4.101049655          6.907183342 33 
256 6          2.655309866          2.909936443          4.924812657 33 
257 6          2.688926926          4.313188718          5.562497074 33 
258 2          2.235646522          2.847704693          3.942245327 33 
259 2          3.632191834          2.516995326          4.849643611 33 
260 2          1.979634728          4.880014214          4.924267359 33 
261 2          3.633790249          4.816318943           5.58472273 33 
262 9          1.905043789          2.699818967          7.210143559 33 
263 3           2.19141904          1.080530813          5.834524641 33 
264 3         0.8044440286          2.105368567           5.57843707 33 
265 3         0.8484812858          4.381465586          6.668313579 33 
266 3          2.158630528            4.7647702          7.699567555 33 
267 4         -11.18912376            12.353807         -4.166368126 34 
268 7         -13.19976872          4.650694829         -4.695245017 35 
269 1         -12.33598795          5.625801715         -5.432584388 35 
270 1          12.77452952          4.816319463         -3.250979725 35 
271 8         -12.85798757          6.945870883         -5.434834423 35 
272 8          12.87210011           6.16887801         -2.760933028 35 
273 8         -11.76043346          5.031103448          -6.64752974 35 
274 8           11.5754708          4.070328805         -3.123250732 35 
275 10         -12.78073359          4.029830887         -2.378439116 35 
276 10         -11.18178538          5.590502056         -4.382912523 35 
277 5         -12.87213428         -2.555941747          5.216601286 36 
278 5          12.22365325         -2.262774333          3.478368492 36 
279 6          -12.0564305         -1.901136001          4.096755779 36 
280 6         -12.89685166         -2.369013754          2.889251914 36 
281 2         -11.08361796         -2.350631337          3.904245849 36 
282 2         -11.92532762        -0.7922115863          4.255712227 36 
283 2         -12.65748546          -3.40077163          2.670674193 36 
284 2         -12.70727923         -1.710956606           1.98254359 36 
285 9          12.34294348         -2.229529622          4.846910165 36 
286 3         -12.63215888         -2.217408251          6.231731793 36 
287 3         -12.74771488         -3.622563318          5.175176502 36 
288 3          11.55249833          -3.18605838          3.346120745 36 
289 3          11.72345745         -1.258739798          3.262981419 36 
290 4          11.88653686          7.575463385         -2.290840953 37 
291 7        -0.2031690895          2.440400843         -10.93924398 38 
292 1        -0.6442380122          3.682235018         -10.04136903 38 
293 1          1.016818798          1.472193981         -10.77529585 38 
294 8         -2.013731854          4.065336693         -10.27149651 38 
295 8          1.604515616          1.091115882         -12.02354818 38 
296 8         0.3488220105          4.752215795         -9.917548176 38 
297 8          1.907315636           1.88700822         -9.707481403 38 
298 10         0.3799093634         0.1055894763         -10.32495796 38 
299 10        -0.7031613271          3.087955971         -8.496707679 38 
300 5          11.97322292         -6.591417156          5.335860974 39 
301 5          12.84507648         -7.319568864          3.283843826 39 
302 6          10.77923314         -7.337192403          4.619790028 39 
303 6          11.41524043         -7.840181604          3.337266231 39 
304 2          10.03234318         -6.536037002          4.467341521 39 
305 2          10.38227594         -8.143664747           5.27014261 39 
306 2          10.89447854         -7.445065507           2.42787317 39 
307 2          11.34542955         -8.947087785          3.337386544 39 
308 9          13.07148784         -7.125003518          4.692347944 39 
309 3          11.96769007         -6.743006901          6.466034976 39 
310 3          11.81634011         -5.561522133          5.041513638 39 
311 3          12.98974566         -6.350880835          2.881727639 39 
312 3         -13.03409753         -7.974981833           2.74699223 39 
313 4         -1.381465812          7.313446743         -4.261985535 40 
314 7          1.082806064         -8.007768521           6.70994999 41 
315 1          1.620806591         -6.585469438          6.729214593 41 
316 1        -0.4341805605         -8.421191463          6.637035461 41 
317 8          2.136656052         -6.239029061          8.044672685 41 
318 8        -0.5537778506         -9.856031958          6.589113971 41 
319 8         0.9182741859         -5.603638507          5.964142398 41 
320 8         -1.390834945         -7.661392215          7.459015361 41 
321 10        -0.7946606593         -8.039989731          5.208088232 41 
322 10          2.903652549         -6.766997365            5.8899886 41 
323 5          12.03422872           3.30102476          1.590562713 42 
324 5           10.8520558          1.912813371         0.2026453888 42 
325 6          12.53099986           1.95170487          1.862375537 42 
326 6          12.13358836          1.251514886         0.5020820206 42 
327 2          12.02515009          1.441864468          2.675666529 42 
328 2         -12.94702821          1.955210995          2.018934531 42 
329 2          11.99808901         0.1754843279         0.6841321687 42 
330 2          12.83676909          1.522704882        -0.2895798998 42 
331 9          10.82841428          3.122173895         0.9745978957 42 
332 3          12.73956404          3.960728983          1.039984973 42 
333 3          11.76625749          3.765499506          2.516457928 42 
334 3          9.982285283          1.319681785         0.4126965048 42 
335 3          10.78872214          2.137614515        -0.8596237812 42 
336 4          11.30682179        -0.9986254829          5.569306473 43 
337 7         -9.546022412        -0.7775510667         -1.235784704 44 
338 1         -9.037381487        -0.4157131237         0.2050765615 44 
339 1         -9.588668677        0.01564383549          -2.52290481 44 
340 8         -9.687346283         -1.139548808          1.236722604 44 
341 8         -8.552417318         0.9841833877          -2.67315577 44 
342 8         -8.896238335          1.041727933         0.3288494811 44 
343 8         -9.821299755        -0.8993390831         -3.636128912 44 
344 10         -10.87984989         0.8549684765         -2.535278347 44 
345 10         -7.534825532        -0.9851742485         0.3415586518 44 
346 5          4.999486269          6.427919896         0.7440024389 45 
347 5          4.653191344          4.599805122          2.163449529 45 
348 6          6.376932327          5.973253964          1.175255356 45 
349 6           6.14381745          4.651881193          1.886478513 45 
350 2          6.831640857          6.684445239          1.874819965 45 
351 2          6.896375403          5.807148876         0.2915389513 45 
352 2          6.843220588          4.469260406          2.739910871 45 
353 2          6.429216495           3.90461571          1.151191575 45 
354 9          4.189086438          5.238196232         0.9647272678 45 
355 3          5.058976734          6.702711731        -0.3117867579 45 
356 3          4.657526089          7.275089083          1.275653461 45 
357 3          4.334892915          5.272900758          2.980795947 45 
358 3          4.223681202          3.605411607          2.443605934 45 
359 4          9.869629225        -0.7556059348         -11.21208565 46 
360 7        0.07367483712        -0.6782096703          3.770934354 47 
361 1         0.2790301029          0.481890756           2.72444439 47 
362 1          1.059584486         -1.641311225          4.417190209 47 
363 8          1.554373745         0.5305127715          2.068107101 47 
364 8         0.3771816745         -2.876992313          4.756642108 47 
365 8        -0.2955271183          1.719974764          3.116927752 47 
366 8          2.434857892         -1.708024675          3.878698891 47 
367 10           1.20574151        -0.9820880599          5.803474036 47 
368 10         -0.730871267        0.03716487875          1.686259088 47 
369 5          11.48469797         -6.807248148         -7.951341621 48 
370 5          -13.2294324         -7.013939489         -9.289709828 48 
371 6          12.64570106          -6.37858561         -7.037349134 48 
372 6         -12.79154069         -6.074837826         -8.053149885 48 
373 2          12.94295042         -7.153506853         -6.326337923 48 
374 2          12.26448365           -5.5651576         -6.439784334 48 
375 2         -11.78185526          -6.14589183         -7.684746537 48 
376 2         -12.70419362         -4.995936649         -8.375777329 48 
377 9          12.12950882         -7.679312625         -8.891233878 48 
378 3          11.18739109         -5.866870488         -8.513138706 48 
379 3          10.75828276         -7.283526629         -7.326234304 48 
380 3         -12.52303624         -7.797701107         -9.442780392 48 
381 3          13.17527127         -6.498070563         -10.29452893 48 
382 4          3.057233895          -6.20466552         -8.963836837 49 
383 7          3.716273784         -1.662129296          8.556634166 50 
384 1          4.246213853        -0.3350144273          7.869960653 50 
385 1           3.71675861         -3.117045098          8.015039417 50 
386 8          3.605296815         0.7876666476          8.516553717 50 
387 8          4.358833882         -3.252863639          6.744831419 50 
388 8           4.30955646        -0.3460766562          6.433140058 50 
389 8          3.920194385         -4.107378709          9.047188159 50 
390 10          2.238932122         -3.322207926          7.644521876 50 
391 10          5.768661546        -0.3395084329          8.288122121 50 
392 5         -9.025782671          8.275267955          10.88397343 51 
393 5         -8.939986906          8.738785916          13.12416811 51 
394 6         -8.016997384          9.363231753           10.9420752 51 
395 6         -7.891211225          9.535415789          12.43217601 51 
396 2         -8.259700692          10.25212196          10.33951429 51 
397 2         -7.010665652          9.163821278          10.45610235 51 
398 2         -8.029276722          10.56654042           12.6241119 51 
399 2         -6.934558682          9.381703312          12.79957079 51 
400 9         -9.812812396          8.397926811          12.06684099 51 
401 3         -8.566234831          7.308073003          10.93256615 51 
402 3         -9.585902629          8.304000949          9.946429508 51 
403 3         -9.523821604          9.227453768          -12.6707352 51 
404 3         -8.558568142          7.802076444         -13.16951482 51 
405 4         -2.234530086         -7.742163659           9.11153226 52 
406 7         -9.601337164         -11.83980247         -1.102805464 53 
407 1         -10.98314075         -12.14813183         -1.639205856 53 
408 1         -9.059711112         -11.01578325         0.1310084153 53 
409 8         -10.96974546         -13.01469692         -2.771108796 53 