LAMMPS data file via write_data, version 11 Aug 2017, timestep = 1020000

2010 atoms
9 atom types
1876 bonds
9 bond types
3350 angles
15 angle types
4020 dihedrals
12 dihedral types

-1.3653454474900002e+01 1.3653454474900002e+01 xlo xhi
-1.3653454474900002e+01 1.3653454474900002e+01 ylo yhi
-1.3653454474900002e+01 1.3653454474900002e+01 zlo zhi

Masses

1 1.00794
2 1.00794
3 1.00794
4 1.00794
5 12.011
6 12.011
7 12.011
8 12.011
9 15.9994

Bond Coeffs # harmonic

1 367.939 1.09327
2 359.363 1.09552
3 364.487 1.09438
4 349.046 1.09858
5 581.964 0.962149
6 294.362 1.52615
7 290.518 1.52495
8 303.542 1.51425
9 330.273 1.42734

Angle Coeffs # harmonic

1 41.9621 107.495
2 43.2242 110.874
3 43.0188 106.054
4 45.2224 109.694
5 44.1387 109.031
6 44.2806 107.268
7 43.3703 109.951
8 43.3544 108.841
9 41.0338 107.612
10 43.5218 109.597
11 58.0374 110.681
12 48.3793 108.785
13 53.6593 112.994
14 48.6378 112.216
15 72.5031 108.648

Dihedral Coeffs # opls

1 0.110238 -0.048852 0.206979 -0.015724
2 -0.258781 -0.054018 0.538151 -0.03226
3 0.087509 -1.22211 0.296133 -0.174313
4 -0.108251 0.793579 0.516979 -0.457442
5 -0.120183 0.804444 0.210506 0.441986
6 -0.057601 -0.159005 0.373244 -0.015338
7 -0.051034 0.155394 0.40445 -0.049531
8 -0.053868 0.181367 0.449782 -0.02044
9 -0.227262 0.038113 0.396593 -0.070885
10 -0.457229 -0.185321 0.353198 -0.144939
11 -0.30203 1.98109 0.418757 -0.09224
12 -0.069217 -0.546535 0.459655 -0.264671

Atoms # full

810 53 4 3.9999499999999999e-01 -7.3697816583761835e+00 -3.4113138354014336e+00 -1.1672802138457829e+01 0 0 0
1965 130 4 3.9999499999999999e-01 -1.2291180306352233e+01 -6.0244345873241896e+00 -1.0467759098024835e+01 0 1 0
1285 85 2 -3.1840000000000002e-03 -9.8838266184610313e-01 -8.0970224627684768e+00 -1.1519165031825397e+01 0 0 1
568 37 3 -2.3938999999999998e-02 -1.0221732240526586e+01 -1.2887159903791380e+01 -1.2940951545565206e+01 0 -1 1
1964 130 3 -2.3938999999999998e-02 -1.3467278172514382e+01 -4.5298358536889252e+00 -9.2930813702008024e+00 0 1 0
248 16 2 -3.1840000000000002e-03 -8.2726324912835931e+00 -9.3781477353128491e+00 -9.9550434247308814e+00 1 0 0
676 45 5 -1.0494800000000000e-01 -1.2884946608382235e+01 -1.2073857685807683e+01 -8.3910414712999941e+00 0 1 0
673 44 3 -2.3938999999999998e-02 -2.0682514683171176e+00 -3.2571561990582865e+00 -9.1890643958455644e+00 0 0 0
570 37 4 3.9999499999999999e-01 -1.0774017341355359e+01 -1.2408993115857989e+01 -1.0887587960912805e+01 0 -1 1
1001 66 2 -3.1840000000000002e-03 -7.9742287124447069e+00 -1.1997617930119242e+01 -1.0936463983299410e+01 -1 2 2
999 66 7 2.9256700000000002e-01 -7.0759570597473527e+00 -1.3591115004648840e+01 -1.1741034034937567e+01 -1 2 2
567 37 9 -6.4556300000000000e-01 -1.0899050200675745e+01 -1.1668275501523160e+01 -1.1454697515119621e+01 0 -1 1
671 44 2 -3.1840000000000002e-03 -2.7379785952627365e+00 -2.0298869402017492e+00 -1.1218738789445224e+01 0 0 0
802 53 2 -3.1840000000000002e-03 -9.9317299556868175e+00 -2.1309258570415763e+00 -9.0897595160494955e+00 0 0 0
662 44 6 3.8731000000000002e-02 -2.6307572126968646e+00 -6.4597568334075539e-01 -9.5501451299144922e+00 0 0 0
1288 85 3 -2.3938999999999998e-02 -2.8294096876138890e+00 -7.5996010936852763e+00 -9.5683358369065381e+00 0 0 1
1110 73 4 3.9999499999999999e-01 -3.3988336565243369e+00 -6.2526112895647827e+00 -1.1526914407825920e+01 -1 0 0
569 37 3 -2.3938999999999998e-02 -1.1938050795732327e+01 -1.2298012793553747e+01 -1.3197911774745783e+01 0 -1 1
300 19 4 3.9999499999999999e-01 -4.3387527222153954e+00 -1.3277124005549885e+01 -1.3486082846216711e+01 0 2 1
998 66 2 -3.1840000000000002e-03 -5.8431200939528711e+00 -1.0605500477763171e+01 -1.0352650771637041e+01 -1 2 2
667 44 2 -3.1840000000000002e-03 -3.4454796898243214e+00 -1.1763278580855583e+00 -9.1422111105985184e+00 0 0 0
674 44 3 -2.3938999999999998e-02 -5.4800057106904909e-01 -2.3715181990780350e+00 -9.1660757916515134e+00 0 0 0
1254 83 7 2.9256700000000002e-01 -6.0721118463419872e+00 -7.7196598130835603e-01 -1.2481859794520291e+01 1 0 0
1276 85 5 -1.0494800000000000e-01 -2.0517121664030802e-01 -1.0916982812692902e+01 -1.1901929296961232e+01 0 0 1
666 44 8 7.2470000000000000e-03 -1.9444345670761989e+00 -1.6293127520412876e+00 -1.0615286464496437e+01 0 0 0
806 53 2 -3.1840000000000002e-03 -1.1010185063189418e+01 -3.1106840189354013e+00 -1.1094674365919035e+01 0 0 0
1277 85 6 3.8731000000000002e-02 -1.5842943930133591e+00 -1.0225398233477733e+01 -1.1611601737172270e+01 0 0 1
243 16 1 2.4195000000000001e-02 -6.4108593524235173e+00 -7.9021179832486634e+00 -1.0678225084235464e+01 1 0 0
1106 73 2 -3.1840000000000002e-03 -6.2193980865538903e+00 -5.0378938331041150e+00 -1.2646678907594600e+01 -1 0 0
253 16 3 -2.3938999999999998e-02 -1.1330404038965845e+01 -7.8777075536176628e+00 -9.6414999762158082e+00 1 0 0
1807 120 2 -3.1840000000000002e-03 -7.2974671083883258e-01 -5.4602640427359628e+00 -8.7658661992469256e+00 0 -1 0
1101 73 8 7.2470000000000000e-03 -5.1564638528988711e+00 -5.4188163542863883e+00 -1.2703650470319712e+01 -1 0 0
245 16 1 2.4195000000000001e-02 -7.3932133851661765e+00 -8.2115447934284198e+00 -1.2179405615673412e+01 1 0 0
669 44 7 2.9256700000000002e-01 -1.3235805623311041e+00 -2.7278123426932237e+00 -9.8279199992121082e+00 0 0 0
797 53 6 3.8731000000000002e-02 -9.8462366329747901e+00 -1.6781739459451781e+00 -1.0135422963477547e+01 0 0 0
1289 85 3 -2.3938999999999998e-02 -3.2730191877827406e+00 -9.2992605202467171e+00 -9.8386363075093506e+00 0 0 1
244 16 1 2.4195000000000001e-02 -7.4943973313541603e+00 -6.7367665360703644e+00 -1.1364329352793956e+01 1 0 0
1283 85 2 -3.1840000000000002e-03 -2.2411192582224913e+00 -1.0237793914881561e+01 -1.2512799852750675e+01 0 0 1
252 16 9 -6.4556300000000000e-01 -1.2199293635138442e+01 -9.0935907429709086e+00 -1.1186342815979962e+01 1 0 0
1803 120 1 2.4195000000000001e-02 -3.9441386599255168e-01 -7.7797891491954525e+00 -8.2538421628004688e+00 0 -1 0
991 66 5 -1.0494800000000000e-01 -5.9633706080225952e+00 -1.2405729799093120e+01 -9.0523881317389829e+00 -1 2 2
801 53 8 7.2470000000000000e-03 -9.9073801712444638e+00 -2.8226594794641109e+00 -1.1146659433515945e+01 0 0 0
241 16 5 -1.0494800000000000e-01 -7.3513367321308918e+00 -7.7957251496633608e+00 -1.1182981062283758e+01 1 0 0
1251 83 8 7.2470000000000000e-03 -7.2431912752402647e+00 -9.3485442579202715e-01 -1.3492573248446009e+01 1 0 0
803 53 2 -3.1840000000000002e-03 -8.9483609488114517e+00 -1.1813979919498827e+00 -1.0180085884109099e+01 0 0 0
1281 85 8 7.2470000000000000e-03 -1.4880168577732940e+00 -8.8547595453347725e+00 -1.0828238236891963e+01 0 0 1
672 44 9 -6.4556300000000000e-01 -8.8428122711657964e-01 -3.7561845812163730e+00 -1.0740743468944746e+01 0 0 0
996 66 8 7.2470000000000000e-03 -7.0120033317873851e+00 -1.2116886185121301e+01 -1.1425652724810982e+01 -1 2 2
1257 83 9 -6.4556300000000000e-01 -6.5151271920498797e+00 -5.9722879454498445e-01 -1.1078202719630633e+01 1 0 0
1109 73 3 -2.3938999999999998e-02 -4.4679006202223093e+00 -3.7154631784578434e+00 -1.1621525693072233e+01 -1 0 0
565 37 2 -3.1840000000000002e-03 -1.1198019202372413e+01 -1.0046851477313238e+01 -1.3378535693602251e+01 0 -1 1
247 16 2 -3.1840000000000002e-03 -8.6970857774768913e+00 -7.7176282321356835e+00 -9.3436603171442538e+00 1 0 0
798 53 1 2.4195000000000001e-02 -1.1890654838982595e+01 -1.0047204876898781e+00 -1.0499712962356424e+01 0 0 0
1282 85 2 -3.1840000000000002e-03 -2.1775121270248690e+00 -1.0855306305907835e+01 -1.0920955177667865e+01 0 0 1
250 16 2 -3.1840000000000002e-03 -9.8615801622070087e+00 -9.0051696080463852e+00 -1.2025461766648233e+01 1 0 0
1279 85 1 2.4195000000000001e-02 -3.4217253504671308e-01 -1.1954025634267007e+01 -1.2239254283868302e+01 0 0 1
251 16 2 -3.1840000000000002e-03 -1.0082446469089721e+01 -7.3302825660552404e+00 -1.1527079643356823e+01 1 0 0
255 16 4 3.9999499999999999e-01 -1.1947062811939793e+01 -9.9927198685557634e+00 -1.1462551684277081e+01 1 0 0
1255 83 2 -3.1840000000000002e-03 -7.5381963226795978e+00 -2.0017759311285950e+00 -1.3345585609789088e+01 1 0 0
678 45 1 2.4195000000000001e-02 -1.1814256111552659e+01 -1.2001069858679578e+01 -8.5434669515793082e+00 0 1 0
1284 85 7 2.9256700000000002e-01 -2.8486478613610826e+00 -8.4069623971001697e+00 -1.0336855602638295e+01 0 0 1
804 53 7 2.9256700000000002e-01 -8.9721926617936774e+00 -3.9149126134529584e+00 -1.0686902365971088e+01 0 0 0
249 16 7 2.9256700000000002e-01 -1.1084544349171749e+01 -8.7075276263547323e+00 -1.0282124298510990e+01 1 0 0
1895 126 1 2.4195000000000001e-02 -6.6900133530785428e+00 -3.5620717048065815e+00 -8.5440043818681612e+00 0 0 0
242 16 6 3.8731000000000002e-02 -8.6022882629971633e+00 -8.3240814978404618e+00 -1.0329292154551071e+01 1 0 0
246 16 8 7.2470000000000000e-03 -9.9172543493389558e+00 -8.3671806495927896e+00 -1.1169015144493239e+01 1 0 0
254 16 3 -2.3938999999999998e-02 -1.0742128679118103e+01 -9.4427216358786943e+00 -9.5203884156511815e+00 1 0 0
993 66 1 2.4195000000000001e-02 -5.5578134030238386e+00 -1.3353069552749625e+01 -9.1411986297810710e+00 -1 2 2
796 53 5 -1.0494800000000000e-01 -1.0913179197878257e+01 -6.0394596258943767e-01 -1.0402938590109745e+01 0 0 0
1649 109 3 -2.3938999999999998e-02 -9.7594547585931650e+00 -6.1899606086935934e+00 -1.3385195118620157e+01 0 -1 1
1290 85 4 3.9999499999999999e-01 -3.9310766100205159e+00 -8.7451659397519226e+00 -1.2069238248036886e+01 0 0 1
997 66 2 -3.1840000000000002e-03 -4.9097546152730640e+00 -1.1956172073448959e+01 -1.0986396485739409e+01 -1 2 2
808 53 3 -2.3938999999999998e-02 -9.1655046478216438e+00 -4.8129151778777617e+00 -1.1355198705220181e+01 0 0 0
1000 66 2 -3.1840000000000002e-03 -7.0145802039518115e+00 -1.1534251850123974e+01 -1.2366250373103348e+01 -1 2 2
1259 83 3 -2.3938999999999998e-02 -5.3850214881997935e+00 -1.6860038080079054e+00 -1.2550179037271029e+01 1 0 0
1256 83 2 -3.1840000000000002e-03 -7.9936842898814664e+00 -1.8817369419063820e-01 -1.3356124012646463e+01 1 0 0
1962 130 9 -6.4556300000000000e-01 -1.1727737096956426e+01 -5.4379741302408986e+00 -9.9926748826522971e+00 0 1 0
995 66 1 2.4195000000000001e-02 -5.3498283177238246e+00 -1.1815366918474307e+01 -8.3723341724012652e+00 -1 2 2
670 44 2 -3.1840000000000002e-03 -1.2281737416843914e+00 -1.1216640098812918e+00 -1.1318368150020531e+01 0 0 0
805 53 2 -3.1840000000000002e-03 -9.5813824232160059e+00 -2.6175913774670696e+00 -1.2155392549373190e+01 0 0 0
1260 83 4 3.9999499999999999e-01 -7.1109464638354725e+00 -1.2643068713214571e+00 -1.0801784380014588e+01 1 0 0
668 44 2 -3.1840000000000002e-03 -1.9472215492102982e+00 -3.5492551315116072e-01 -8.7599882468864632e+00 0 0 0
807 53 9 -6.4556300000000000e-01 -7.6894609677682944e+00 -3.3713422378246736e+00 -1.0773719411360464e+01 0 0 0
1286 85 2 -3.1840000000000002e-03 -7.6275740063953301e-01 -8.9630501764963562e+00 -9.9804964390469486e+00 0 0 1
994 66 1 2.4195000000000001e-02 -6.9926374665464941e+00 -1.2406515935538804e+01 -8.7861448834578599e+00 -1 2 2
1107 73 9 -6.4556300000000000e-01 -3.2165357875893692e+00 -5.2985283945166550e+00 -1.1279639462798068e+01 -1 0 0
809 53 3 -2.3938999999999998e-02 -9.1393383073231718e+00 -4.1861494077487782e+00 -9.6559915750277163e+00 0 0 0
1963 130 3 -2.3938999999999998e-02 -1.1983711397455451e+01 -4.0588206870577572e+00 -8.3407938783707660e+00 0 1 0
1959 130 7 2.9256700000000002e-01 -1.2482926233648625e+01 -4.9146012875786669e+00 -8.8582461065389904e+00 0 1 0
675 44 4 3.9999499999999999e-01 -1.5990862723902250e+00 -4.4136663015063871e+00 -1.0830727474991576e+01 0 0 0
1287 85 9 -6.4556300000000000e-01 -3.6808682556918324e+00 -8.0038083894121659e+00 -1.1448072519847985e+01 0 0 1
15 0 4 3.9999499999999999e-01 -1.3411423746370309e+01 -7.5884809469284988e+00 -1.1891332511499826e+01 0 0 1
1316 87 2 -3.1840000000000002e-03 -1.2562456607505899e+01 -1.2164381151581154e-01 -1.2877711824285388e+01 1 0 -1
1108 73 3 -2.3938999999999998e-02 -5.1976845182536247e+00 -4.9623337378225640e+00 -1.0597449025216429e+01 -1 0 0
1104 73 7 2.9256700000000002e-01 -4.5155808053040118e+00 -4.7544144057171067e+00 -1.1491436284974350e+01 -1 0 0
1105 73 2 -3.1840000000000002e-03 -5.1223823248982887e+00 -6.4707751853215960e+00 -1.2623433588429831e+01 -1 0 0
564 37 7 2.9256700000000002e-01 -1.0945197819315531e+01 -1.2108579764054813e+01 -1.2771268697353626e+01 0 -1 1
799 53 1 2.4195000000000001e-02 -1.0601062370850009e+01 -8.3015628755750609e-02 -1.1329555045821150e+01 0 0 0
992 66 6 3.8731000000000002e-02 -5.8820150483068803e+00 -1.1706965022664175e+01 -1.0465928537163775e+01 -1 2 2
566 37 2 -3.1840000000000002e-03 -9.5757404088022273e+00 -1.0644988144465303e+01 -1.3324768545828354e+01 0 -1 1
1961 130 2 -3.1840000000000002e-03 -1.3206198318453829e+01 -6.8318563255973004e+00 -8.4271395380869336e+00 0 1 0
561 37 8 7.2470000000000000e-03 -1.0586640920909137e+01 -1.0964848975492014e+01 -1.3644353843079182e+01 0 -1 1
679 45 1 2.4195000000000001e-02 -1.3391451028522420e+01 -1.2135086532241438e+01 -9.3602880102766832e+00 0 1 0
1646 109 2 -3.1840000000000002e-03 -1.1233236380520749e+01 -4.1319255308207588e+00 -1.3455708473838877e+01 0 -1 1
1315 87 2 -3.1840000000000002e-03 -1.3238963084619986e+01 -1.5241270451738080e+00 -1.3433460769089180e+01 1 0 -1
117 7 9 -6.4556300000000000e-01 -4.7198579048897278e+00 -9.7616941655729192e+00 -1.3468164545440935e+01 0 1 1
120 7 4 3.9999499999999999e-01 -4.2378918307201978e+00 -1.0597374259257780e+01 -1.3636839207357669e+01 0 1 1
1903 126 3 -2.3938999999999998e-02 -4.1835113789334439e+00 -3.5983220765803177e+00 -4.4325534004682066e+00 0 0 0
275 18 1 2.4195000000000001e-02 -7.0685384722058595e+00 -9.6767505344511129e+00 -5.0302731553527371e+00 1 0 0
1896 126 8 7.2470000000000000e-03 -4.7703799359728078e+00 -2.9570077884218264e+00 -6.5012384684142734e+00 0 0 0
1897 126 2 -3.1840000000000002e-03 -6.0997676601034643e+00 -4.4388235957742159e+00 -5.6913166200358063e+00 0 0 0
280 18 2 -3.1840000000000002e-03 -9.4240342117037574e+00 -1.0966242674098513e+01 -3.1830312935148384e+00 1 0 0
1465 97 2 -3.1840000000000002e-03 -2.9473963059872843e+00 -8.8964571244586050e+00 -3.5396583182035930e+00 -1 0 0
1468 97 3 -2.3938999999999998e-02 -7.2575218167007061e-01 -7.7871582759070659e+00 -4.3574730760505176e+00 -1 0 0
56 3 2 -3.1840000000000002e-03 -1.0859606089983803e+01 -5.6086471275620626e+00 -3.3091737606952671e+00 0 0 -1
1464 97 7 2.9256700000000002e-01 -1.4118349601513180e+00 -7.2691316254301439e+00 -3.6929339521785818e+00 -1 0 0
303 20 1 2.4195000000000001e-02 -1.2314526472271716e+01 -1.3382619442666062e+01 -5.6359780716656029e+00 1 -1 0
1900 126 2 -3.1840000000000002e-03 -4.9309012430195294e+00 -2.0331533328695630e+00 -7.1387280022806996e+00 0 0 0
285 18 4 3.9999499999999999e-01 -8.6717882518304847e+00 -1.2638135611046138e+01 -5.9807820979682367e+00 1 0 0
1457 97 6 3.8731000000000002e-02 -3.3543563397740619e+00 -7.6285957801880189e+00 -5.2913930197346177e+00 -1 0 0
58 3 3 -2.3938999999999998e-02 -1.2023029920602937e+01 -7.5830261579766924e+00 -3.5084743305162660e+00 0 0 -1
1908 127 1 2.4195000000000001e-02 -1.6922474102533225e+00 -1.1513474624803425e+01 -5.9878847637978829e+00 0 1 0
1462 97 2 -3.1840000000000002e-03 -3.1909999960587965e+00 -6.5566747699713330e+00 -5.4924731204295751e+00 -1 0 0
1951 130 5 -1.0494800000000000e-01 -1.1649703963408806e+01 -7.7416691180145643e+00 -6.4710157877650945e+00 0 1 0
1905 126 4 3.9999499999999999e-01 -2.3519098311486495e+00 -2.9370408832675974e+00 -5.2795772729634169e+00 0 0 0
1952 130 6 3.8731000000000002e-02 -1.1372537769719642e+01 -6.4626111746207533e+00 -7.2721814753650325e+00 0 1 0
1458 97 1 2.4195000000000001e-02 -5.0173784945171018e+00 -8.0785000193215897e+00 -6.5243412770745719e+00 -1 0 0
1811 120 2 -3.1840000000000002e-03 -7.6375387276775819e-01 -5.8684591193183131e+00 -6.3910378736346800e+00 0 -1 0
1956 130 8 7.2470000000000000e-03 -1.2691291137459604e+01 -6.0356027427056480e+00 -7.8912143536802954e+00 0 1 0
1463 97 2 -3.1840000000000002e-03 -2.7401140944248845e+00 -8.1615952607470561e+00 -6.0199104371699397e+00 -1 0 0
1893 126 1 2.4195000000000001e-02 -7.5157162159711284e+00 -4.9152405911554080e+00 -7.7459756543173865e+00 0 0 0
284 18 3 -2.3938999999999998e-02 -1.0154149543136734e+01 -1.3290484522081128e+01 -3.7056777526627327e+00 1 0 0
277 18 2 -3.1840000000000002e-03 -9.2279644078075247e+00 -1.0422092099696822e+01 -6.1613296602795629e+00 1 0 0
1467 97 9 -6.4556300000000000e-01 -1.3449024659373161e+00 -5.8475894938251063e+00 -3.6387082852513846e+00 -1 0 0
1906 127 5 -1.0494800000000000e-01 -1.0843124539001467e+00 -1.1039157700962072e+01 -6.8093818317917743e+00 0 1 0
1955 130 1 2.4195000000000001e-02 -1.0963209669053102e+01 -7.9256924156305653e+00 -5.6599953282692557e+00 0 1 0
683 45 2 -3.1840000000000002e-03 -1.2638166337263922e+01 -1.0737483757872658e+01 -6.7277169576411913e+00 0 1 0
815 54 1 2.4195000000000001e-02 -4.5438790591816343e+00 -1.1186661201591201e+01 -3.1526781876839052e+00 0 1 0
677 45 6 3.8731000000000002e-02 -1.3323660155811663e+01 -1.0918462741813928e+01 -7.5339233484618173e+00 0 1 0
1910 127 1 2.4195000000000001e-02 -9.1610208107111712e-01 -9.9849959085998581e+00 -6.6554267736904267e+00 0 1 0
1902 126 9 -6.4556300000000000e-01 -2.9678328784676329e+00 -2.1527935448475515e+00 -5.4060755647094325e+00 0 0 0
525 34 4 3.9999499999999999e-01 -1.5268557692154552e+00 -8.2439686628746167e-01 -4.7727567100044945e+00 0 0 0
1470 97 4 3.9999499999999999e-01 -1.8327059524157405e+00 -5.5209552129158803e+00 -2.8698019990076054e+00 -1 0 0
1812 120 9 -6.4556300000000000e-01 -5.4269697394950822e-01 -3.5792629305882531e+00 -5.1985105258784161e+00 0 -1 0
1901 126 2 -3.1840000000000002e-03 -3.9408825696874352e+00 -3.5555369481476160e+00 -6.9353438971211547e+00 0 0 0
1892 126 6 3.8731000000000002e-02 -6.1313934309753000e+00 -3.6934758126747655e+00 -6.4912109587823039e+00 0 0 0
1434 95 7 2.9256700000000002e-01 -1.2981065617336661e+01 -1.7611782014298862e+00 -5.8477925983784624e+00 0 1 0
274 18 1 2.4195000000000001e-02 -8.0693130426852147e+00 -8.4128930676682216e+00 -5.5963722394595798e+00 1 0 0
335 22 1 2.4195000000000001e-02 -6.1023143330325080e+00 -4.3384687740513419e+00 -3.0020344657001723e+00 0 0 0
1958 130 2 -3.1840000000000002e-03 -1.1147361930163200e+01 -5.7224926240574279e+00 -6.5229152428172767e+00 0 1 0
1904 126 3 -2.3938999999999998e-02 -4.8922664435874026e+00 -1.8487730923685723e+00 -4.6064242664420796e+00 0 0 0
1894 126 1 2.4195000000000001e-02 -5.7479123191111459e+00 -5.0001158429096160e+00 -8.1359444123905895e+00 0 0 0
1898 126 2 -3.1840000000000002e-03 -6.9405330834336487e+00 -3.1511161311735862e+00 -5.9978951293009155e+00 0 0 0
1456 97 5 -1.0494800000000000e-01 -4.8372574956742280e+00 -8.0584918671271861e+00 -5.4253627332379075e+00 -1 0 0
334 22 1 2.4195000000000001e-02 -7.4102946193145813e+00 -5.1188424302851159e+00 -3.9724068235512475e+00 0 0 0
272 18 6 3.8731000000000002e-02 -9.2161324904777651e+00 -1.0142004375873483e+01 -5.1044864478942404e+00 1 0 0
281 18 2 -3.1840000000000002e-03 -8.1156999446393367e+00 -1.1771765673648593e+01 -4.0388973659121215e+00 1 0 0
1466 97 2 -3.1840000000000002e-03 -3.3683455374056064e+00 -7.2703877028069881e+00 -3.1130605207610347e+00 -1 0 0
682 45 2 -3.1840000000000002e-03 -1.3505760808205221e+01 -1.0044584674194141e+01 -8.1602392178115206e+00 0 1 0
1461 97 8 7.2470000000000000e-03 -2.8209085355220189e+00 -7.8521933651375662e+00 -3.8875997972877272e+00 -1 0 0
282 18 9 -6.4556300000000000e-01 -8.8815505817005231e+00 -1.3259129575415328e+01 -5.3222855973925300e+00 1 0 0
1957 130 2 -3.1840000000000002e-03 -1.0549164485506282e+01 -6.5254831447513331e+00 -7.9831484951424585e+00 0 1 0
276 18 8 7.2470000000000000e-03 -9.1215082892802908e+00 -1.1361403834677009e+01 -4.1230878970989853e+00 1 0 0
371 24 2 -3.1840000000000002e-03 -6.7892033020619822e+00 -3.3104863097543152e-01 -6.4510256379801412e+00 0 0 0
59 3 3 -2.3938999999999998e-02 -1.3146404131002097e+01 -6.1312509107480313e+00 -3.3714572727928300e+00 0 0 -1
1437 95 9 -6.4556300000000000e-01 -1.3088331082284846e+01 -3.1239686669459896e+00 -5.8907557388014409e+00 0 1 0
1953 130 1 2.4195000000000001e-02 -1.1569710031941730e+01 -8.6223978199539975e+00 -7.0923825463704251e+00 0 1 0
278 18 2 -3.1840000000000002e-03 -1.0334701492401967e+01 -9.7738756943519771e+00 -4.9669057105337817e+00 1 0 0
1954 130 1 2.4195000000000001e-02 -1.2635956058962714e+01 -7.6938016960580384e+00 -5.9381065322166009e+00 0 1 0
1460 97 1 2.4195000000000001e-02 -5.0976829418838365e+00 -9.0515357228995068e+00 -5.0920221424543772e+00 -1 0 0
1459 97 1 2.4195000000000001e-02 -5.4725404146728858e+00 -7.4257043748030256e+00 -4.8287874749336712e+00 -1 0 0
1899 126 7 2.9256700000000002e-01 -4.2835620383197810e+00 -2.6674844923791365e+00 -5.1021407500387568e+00 0 0 0
1809 120 7 2.9256700000000002e-01 -1.3260172409652593e-01 -3.9103147338497384e+00 -6.4999111570496675e+00 0 -1 0
1439 95 3 -2.3938999999999998e-02 -1.2078134082176804e+01 -1.3666093771552441e+00 -6.4124894251047690e+00 0 1 0
680 45 1 2.4195000000000001e-02 -1.3140772636220492e+01 -1.2972501624053390e+01 -7.9123559099662586e+00 0 1 0
331 22 5 -1.0494800000000000e-01 -7.0616042221000450e+00 -4.7989891312279056e+00 -2.9642104837409540e+00 0 0 0
363 24 1 2.4195000000000001e-02 -9.3995833181896771e+00 -1.2782459220779990e-01 -5.5329786894676571e+00 0 0 0
1960 130 2 -3.1840000000000002e-03 -1.3419220233883623e+01 -5.6257570994976618e+00 -7.1745200952618697e+00 0 1 0
1813 120 3 -2.3938999999999998e-02 -8.9877373132295957e-01 -3.5902575020804512e+00 -7.2165431157158642e+00 0 -1 0
283 18 3 -2.3938999999999998e-02 -1.0678306167133389e+01 -1.2283816756356348e+01 -5.0913822938572943e+00 1 0 0
1909 127 1 2.4195000000000001e-02 -1.7163984115927839e+00 -1.1123515023028411e+01 -7.6444713132300617e+00 0 1 0
1438 95 3 -2.3938999999999998e-02 -1.3022655385578325e+01 -1.2937281586940941e+00 -4.8586609219868500e+00 0 1 0
271 18 5 -1.0494800000000000e-01 -8.0534934007431733e+00 -9.1822584552216444e+00 -4.8620934287544975e+00 1 0 0
1891 126 5 -1.0494800000000000e-01 -6.5398113737276180e+00 -4.3566279288075638e+00 -7.8174874764497613e+00 0 0 0
279 18 7 2.9256700000000002e-01 -9.8625064865122294e+00 -1.2629040201547573e+01 -4.5337727448757210e+00 1 0 0
1815 120 4 3.9999499999999999e-01 -7.4861755899409521e-01 -4.4229511250964810e+00 -4.8168859424518633e+00 0 -1 0
273 18 1 2.4195000000000001e-02 -8.0261682812855994e+00 -8.6851249120168301e+00 -3.8691167126922354e+00 1 0 0
54 3 7 2.9256700000000002e-01 -1.2465162369301892e+01 -6.7894474134166929e+00 -2.8314148807035693e+00 0 0 -1
370 24 2 -3.1840000000000002e-03 -7.7411901723576877e+00 -2.6903118109905927e-01 -7.8325699090640999e+00 0 0 0
1483 98 3 -2.3938999999999998e-02 -1.3491611571574573e+01 -1.1309135362354075e+01 -3.6569444147993893e+00 2 0 1
1913 127 2 -3.1840000000000002e-03 -9.5447195034890617e-02 -1.2666645387536763e+01 -7.3874052341865486e+00 0 1 0
337 22 2 -3.1840000000000002e-03 -6.3269369313264932e+00 -6.7214649807298708e+00 -2.7439167794472672e+00 0 0 0
128 8 2 -3.1840000000000002e-03 -7.8262965793089903e+00 -1.1319010182616120e+01 2.2482590905823061e+00 1 1 0
821 54 2 -3.1840000000000002e-03 -2.2507005831111218e+00 -1.2315390256611797e+01 -1.8489388107547038e+00 0 1 0
57 3 9 -6.4556300000000000e-01 -1.3210316987552776e+01 -7.4244107774962593e+00 -1.8031595654639154e+00 0 0 -1
53 3 2 -3.1840000000000002e-03 -1.0668876347453402e+01 -4.5956368204781928e+00 -9.7671282203853271e-01 0 0 -1
825 54 4 3.9999499999999999e-01 -1.0973189306456950e+00 -1.1901499487192567e+01 7.1373020607902038e-01 0 1 0
819 54 7 2.9256700000000002e-01 -2.4545427642861499e+00 -1.3117387052528487e+01 1.7217407574826188e-01 0 1 0
46 3 5 -1.0494800000000000e-01 -1.2226962473036423e+01 -3.5100493065979874e+00 -1.9213771200984393e+00 0 0 -1
1087 72 2 -3.1840000000000002e-03 -1.0518795610543303e+00 -1.5534822635209715e+00 1.8049054052525584e+00 0 -1 1
824 54 3 -2.3938999999999998e-02 -3.1325943446899558e+00 -1.3111476477422352e+01 1.0114416917375244e+00 0 1 0
130 8 2 -3.1840000000000002e-03 -9.9638143477140542e+00 -1.0571114685348919e+01 9.1940421832804931e-01 1 1 0
656 43 2 -3.1840000000000002e-03 -1.3347218417298001e+00 -3.6853862882446857e+00 1.9004580816254948e-01 0 1 0
51 3 8 7.2470000000000000e-03 -1.1343324495302195e+01 -5.9682406904921477e+00 -2.3574720425187476e+00 0 0 -1
814 54 1 2.4195000000000001e-02 -5.9450076288928582e+00 -1.0855534923858571e+01 -2.1988761498223388e+00 0 1 0
131 8 2 -3.1840000000000002e-03 -1.0085945118613269e+01 -1.2187552075733516e+01 4.9355254418523958e-01 1 1 0
229 15 1 2.4195000000000001e-02 -1.0612561097618235e+01 -2.3325825682862877e+00 1.5824253968843041e+00 1 0 -1
1393 92 3 -2.3938999999999998e-02 -1.1627010918036882e+00 -7.7549373085133748e+00 1.3466975178715096e-01 1 -1 -1
135 8 4 3.9999499999999999e-01 -7.3004011956414860e+00 -1.0052564276822245e+01 7.5202191174124799e-01 1 1 0
657 43 9 -6.4556300000000000e-01 -2.8121825407741112e+00 -4.4880588460254982e+00 -1.8323167247498087e+00 0 1 0
234 15 7 2.9256700000000002e-01 -6.6398321434948899e+00 -2.9842526889960865e+00 2.0532538721717457e+00 1 0 -1
748 49 3 -2.3938999999999998e-02 -4.2189105624068874e+00 -1.0671649327167822e+01 1.0687667661168376e+00 -1 1 0
660 43 4 3.9999499999999999e-01 -3.1814639660545256e+00 -4.8103159752364926e+00 -1.0163435299853036e+00 0 1 0
126 8 8 7.2470000000000000e-03 -9.3687608666029725e+00 -1.1417343867896490e+01 7.8101828606351087e-01 1 1 0
122 8 6 3.8731000000000002e-02 -8.7048020751825508e+00 -1.1903424988630530e+01 2.0348251001963695e+00 1 1 0
50 3 1 2.4195000000000001e-02 -1.2402370598888592e+01 -2.8452933299237171e+00 -1.1209416555332159e+00 0 0 -1
812 54 6 3.8731000000000002e-02 -4.3072502860760231e+00 -1.2187454307799607e+01 -1.3083286863086248e+00 0 1 0
654 43 7 2.9256700000000002e-01 -2.4329260665989616e+00 -3.1508385165695683e+00 -1.5828153575749948e+00 0 1 0
341 22 2 -3.1840000000000002e-03 -4.8799485719224780e+00 -6.2008831927884156e+00 -9.9608379452967177e-01 0 0 0
747 49 9 -6.4556300000000000e-01 -5.7345419174243029e+00 -9.8409138918343935e+00 2.1972556618242187e+00 -1 1 0
820 54 2 -3.1840000000000002e-03 -2.6580608130306032e+00 -1.1103192307817505e+01 -5.3046126351666800e-01 0 1 0
1392 92 9 -6.4556300000000000e-01 -6.6586314660889223e-01 -9.6305954463913750e+00 1.0361828292351616e+00 1 -1 -1
1387 92 2 -3.1840000000000002e-03 -1.6775430099122408e+00 -5.6428077776007433e+00 1.8574832910491867e+00 1 -1 -1
233 15 2 -3.1840000000000002e-03 -8.8113064179680318e+00 -2.1693812158266010e+00 -4.1177362588705912e-01 1 0 -1
2002 133 2 -3.1840000000000002e-03 -6.5819728283354175e+00 -1.3448518698895789e+01 7.0792553584018680e-01 0 1 1
47 3 6 3.8731000000000002e-02 -1.1635340737193733e+01 -4.8316118875042928e+00 -1.4326710959657682e+00 0 0 -1
1394 92 3 -2.3938999999999998e-02 -2.2022733592331738e+00 -8.3158552166297941e+00 1.5988405827042675e+00 1 -1 -1
60 3 4 3.9999499999999999e-01 -1.3205224723697716e+01 -6.9419618698019274e+00 -9.5650000313357264e-01 0 0 -1
343 22 3 -2.3938999999999998e-02 -6.3666523232451899e+00 -7.8312966236046675e+00 -1.6320549628263353e-01 0 0 0
129 8 7 2.9256700000000002e-01 -8.3737267137118216e+00 -1.1094768065788248e+01 -2.9019911669981358e-01 1 1 0
1759 117 1 2.4195000000000001e-02 -1.2252199064597589e+01 -8.8376505390170781e+00 4.0063834428227374e-01 0 1 -1
1757 117 6 3.8731000000000002e-02 -1.3349915521058600e+01 -9.2579783856928817e+00 2.2784195937193155e+00 0 1 -1
227 15 6 3.8731000000000002e-02 -8.5970414706390823e+00 -2.2254919632495147e+00 6.7547857244644516e-01 1 0 -1
817 54 2 -3.1840000000000002e-03 -4.6385882663060585e+00 -1.3146775120246827e+01 -1.7872786228925148e+00 0 1 0
655 43 2 -3.1840000000000002e-03 -1.0001205661237125e+00 -1.9558261433145139e+00 -3.2123507290265485e-01 0 1 0
231 15 8 7.2470000000000000e-03 -7.2501809715509111e+00 -2.9689717205235575e+00 6.3689496597988027e-01 1 0 -1
811 54 5 -1.0494800000000000e-01 -4.8623999722460063e+00 -1.1028707430897411e+01 -2.0829044162316221e+00 0 1 0
342 22 9 -6.4556300000000000e-01 -5.4864354685618029e+00 -6.6210367070590781e+00 1.3348517176609698e+00 0 0 0
340 22 2 -3.1840000000000002e-03 -5.8155697238538480e+00 -4.8759567928177985e+00 -5.6157146024970006e-01 0 0 0
133 8 3 -2.3938999999999998e-02 -8.8212022125940273e+00 -1.1130672869498172e+01 -1.3090220928156289e+00 1 1 0
813 54 1 2.4195000000000001e-02 -4.4444342503602634e+00 -1.0085885445988891e+01 -1.7864654798609776e+00 0 1 0
235 15 2 -3.1840000000000002e-03 -6.5135448770506796e+00 -2.4639520006907945e+00 -2.4771554023168618e-02 1 0 -1
332 22 6 3.8731000000000002e-02 -6.7989127190251484e+00 -5.9772410166834273e+00 -2.0999267565624051e+00 0 0 0
818 54 2 -3.1840000000000002e-03 -4.8452103144922276e+00 -1.2044589460563177e+01 -3.3626340797124388e-01 0 1 0
1389 92 7 2.9256700000000002e-01 -1.1793928788876120e+00 -8.3103553429718477e+00 1.1138757531350796e+00 1 -1 -1
338 22 2 -3.1840000000000002e-03 -7.7495722298815384e+00 -6.4472588831942446e+00 -1.7676837460652162e+00 0 0 0
336 22 8 7.2470000000000000e-03 -5.9101185276894030e+00 -5.8923777985047057e+00 -8.8584651281891469e-01 0 0 0
1756 117 5 -1.0494800000000000e-01 -1.3084224046032665e+01 -9.4803715544342335e+00 7.8269292681253333e-01 0 1 -1
228 15 1 2.4195000000000001e-02 -1.0138333871827097e+01 -3.7821904409736544e+00 8.8180471110878145e-01 1 0 -1
239 15 3 -2.3938999999999998e-02 -6.4521234608105082e+00 -1.9774660741418164e+00 2.3463062042187999e+00 1 0 -1
134 8 3 -2.3938999999999998e-02 -7.6533499866363988e+00 -1.1902863412516458e+01 -2.0847095492894313e-01 1 1 0
237 15 9 -6.4556300000000000e-01 -5.4157211575674244e+00 -3.8413828289779945e+00 2.0510896680829829e+00 1 0 -1
1081 72 5 -1.0494800000000000e-01 -3.1653975312075753e+00 -1.2273794928706265e+00 1.5279800624493920e+00 0 -1 1
345 22 4 3.9999499999999999e-01 -5.3246574376030029e+00 -5.6398832444594005e+00 1.4208970669374601e+00 0 0 0
750 49 4 3.9999499999999999e-01 -5.6239039945750360e+00 -8.8749681431062530e+00 2.1786173998960732e+00 -1 1 0
238 15 3 -2.3938999999999998e-02 -7.4610110294906029e+00 -3.3242253421997408e+00 2.6559112332682808e+00 1 0 -1